----- GAMESS execution script -----
This job is running on host lpqlx139
under operating system Linux at Tue Sep 26 17:08:01 CEST 2017
Available scratch disk space (Kbyte units) at beginning of the job is
Filesystem     1K-blocks    Used Available Use% Mounted on
tmpfs            6592140 2721844   3870296  42% /run/shm

 Distributed Data Interface kickoff program.
 Initiating 1 compute processes on 1 nodes to run the following command:
 /usr/local/gamess/gamess.01.x C1 

          ******************************************************
          *         GAMESS VERSION = 22 FEB 2006 (R5)          *
          *             FROM IOWA STATE UNIVERSITY             *
          * M.W.SCHMIDT, K.K.BALDRIDGE, J.A.BOATZ, S.T.ELBERT, *
          *   M.S.GORDON, J.H.JENSEN, S.KOSEKI, N.MATSUNAGA,   *
          *          K.A.NGUYEN, S.J.SU, T.L.WINDUS,           *
          *       TOGETHER WITH M.DUPUIS, J.A.MONTGOMERY       *
          *         J.COMPUT.CHEM.  14, 1347-1363(1993)        *
          ***************** AMD 64 BIT VERSION *****************

     SINCE 1993, STUDENTS AND POSTDOCS WORKING AT IOWA STATE UNIVERSITY
     AND ALSO IN THEIR VARIOUS JOBS AFTER LEAVING ISU HAVE MADE IMPORTANT
     CONTRIBUTIONS TO THE CODE:
     IVANA ADAMOVIC, CHRISTINE AIKENS, YURI ALEXEEV, POOJA ARORA, ROB BELL,
     PRADIPTA BANDYOPADHYAY, BRETT BODE, GALINA CHABAN, WEI CHEN,
     CHEOL HO CHOI, PAUL DAY, TIM DUDLEY, DMITRI FEDOROV, GRAHAM FLETCHER,
     MARK FREITAG, KURT GLAESEMANN, GRANT MERRILL, TAKESHI NAGATA,
     HEATHER NETZLOFF, BOSILJKA NJEGIC, RYAN OLSON, MIKE PAK, JIM SHOEMAKER,
     LYUDMILA SLIPCHENKO, JIE SONG, TETSUYA TAKETSUGU, SIMON WEBB.

     ADDITIONAL CODE HAS BEEN PROVIDED BY COLLABORATORS IN OTHER GROUPS:
     IOWA STATE UNIVERSITY: JOE IVANIC, KLAUS RUEDENBERG
     UNIVERSITY OF TOKYO: KIMIHIKO HIRAO, HARUYUKI NAKANO, TAKAHITO
          NAKAJIMA, TAKAO TSUNEDA, MUNEAKI KAMIYA, SUSUMU YANAGISAWA,
          KIYOSHI YAGI
     UNIVERSITY OF SOUTHERN DENMARK: FRANK JENSEN
     UNIVERSITY OF IOWA: VISVALDAS KAIRYS, HUI LI
     NATIONAL INST. OF STANDARDS AND TECHNOLOGY: WALT STEVENS, DAVID GARMER
     UNIVERSITY OF PISA: BENEDETTA MENNUCCI, JACOPO TOMASI
     UNIVERSITY OF MEMPHIS: HENRY KURTZ, PRAKASHAN KORAMBATH
     UNIVERSITY OF ALBERTA: MARIUSZ KLOBUKOWSKI
     UNIVERSITY OF NEW ENGLAND: MARK SPACKMAN
     MIE UNIVERSITY: HIROAKI UMEDA
     MICHIGAN STATE UNIVERSITY:
          KAROL KOWALSKI, MARTA WLOCH, PIOTR PIECUCH
     UNIVERSITY OF SILESIA: MONIKA MUSIAL, STANISLAW KUCHARSKI
     FACULTES UNIVERSITAIRES NOTRE-DAME DE LA PAIX:
          OLIVIER QUINET, BENOIT CHAMPAGNE
     UNIVERSITY OF CALIFORNIA - SANTA BARBARA: BERNARD KIRTMAN
     INSTITUTE FOR MOLECULAR SCIENCE: KAZUYA ISHIMURA AND SHIGERU NAGASE
     UNIVERSITY OF NOTRE DAME: DAN CHIPMAN
     KYUSHU UNIVERSITY:
          FENG LONG GU, JACEK KORCHOWIEC, MARCIN MAKOWSKI, AND YURIKO AOKI
     PENNSYLVANIA STATE UNIVERSITY:
          TZVETELIN IORDANOV, CHET SWALINA, SHARON HAMMES-SCHIFFER

 EXECUTION OF GAMESS BEGUN Tue Sep 26 17:08:01 2017

            ECHO OF THE FIRST FEW INPUT CARDS -
 INPUT CARD> $CONTRL                                                                        
 INPUT CARD>   EXETYP=RUN COORD=UNIQUE  UNITS=ANGS                                          
 INPUT CARD>   RUNTYP=ENERGY SCFTYP=MCSCF CITYP=NONE                                        
 INPUT CARD>   MAXIT=100                                                                    
 INPUT CARD>   ISPHER=1                                                                     
 INPUT CARD>   MULT=1                                                                       
 INPUT CARD>   ICHARG=1                                                                     
 INPUT CARD>   MPLEVL=0                                                                     
 INPUT CARD>   ECP=READ                                                                     
 INPUT CARD> $END                                                                           
 INPUT CARD>                                                                                
 INPUT CARD> $GUESS                                                                         
 INPUT CARD>  GUESS=MOREAD                                                                  
 INPUT CARD>  NORB=111                                                                      
 INPUT CARD> $END                                                                           
 INPUT CARD>                                                                                
 INPUT CARD> $SCF                                                                           
 INPUT CARD>  DIRSCF=.T.                                                                    
 INPUT CARD> $END                                                                           
 INPUT CARD>                                                                                
 INPUT CARD> $MCSCF                                                                         
 INPUT CARD>   FOCAS=.F.    SOSCF=.T.   FULLNR=.F.                                          
 INPUT CARD>   CISTEP=GUGA EKT=.F. QUAD=.F. JACOBI=.f.                                      
 INPUT CARD>   MAXIT=1000                                                                   
 INPUT CARD> $END                                                                           
 INPUT CARD>                                                                                
 INPUT CARD> $GUGDIA                                                                        
 INPUT CARD>  NSTATE=2                                                                      
 INPUT CARD> $END                                                                           
 INPUT CARD>                                                                                
 INPUT CARD> $GUGDM2                                                                        
 INPUT CARD>  WSTATE(1)=0.5,0.5                                                             
 INPUT CARD> $END                                                                           
 INPUT CARD>                                                                                
 INPUT CARD>                                                                                
 INPUT CARD> $DRT                                                                           
 INPUT CARD>  NMCC=8                                                                        
 INPUT CARD>  NDOC=1                                                                        
 INPUT CARD>  NALP=0                                                                        
 INPUT CARD>  NVAL=1                                                                        
 INPUT CARD>  NEXT=0                                                                        
 INPUT CARD>  ISTSYM=1                                                                      
 INPUT CARD>  FORS=.TRUE.                                                                   
 INPUT CARD>  GROUP=C1                                                                      
 INPUT CARD>  MXNINT= 600000                                                                
 INPUT CARD>  NPRT=2                                                                        
 INPUT CARD> $END                                                                           
 INPUT CARD>                                                                                
 INPUT CARD> $GUGDM                                                                         
 INPUT CARD>  NFLGDM(1)=1,1                                                                 

 ..... DONE SETTING UP THE RUN .....
    1000000 WORDS OF MEMORY AVAILABLE

     $BASIS REQUESTS READING THE "BASIS   " BASIS SET FROM AN EXTERNAL FILE


     RUN TITLE
     ---------
 C1                                                                              

 THE POINT GROUP OF THE MOLECULE IS C1      
 THE ORDER OF THE PRINCIPAL AXIS IS     0

 THE EXTERNAL BASIS SET FILE BEING READ IS
     "/home/scemama/Cyanines/Runs/AVDZ_Pseudo/BASIS"
 *** WARNING! ATOM   1 SHELL    1 TYPE S HAS NORMALIZATION   1.32259418
 *** WARNING! ATOM   1 SHELL    3 TYPE P HAS NORMALIZATION  22.65171974
 *** WARNING! ATOM   2 SHELL    6 TYPE S HAS NORMALIZATION   1.32259418
 *** WARNING! ATOM   2 SHELL    8 TYPE P HAS NORMALIZATION  22.65171974
 *** WARNING! ATOM   3 SHELL   11 TYPE S HAS NORMALIZATION   1.32259418
 *** WARNING! ATOM   3 SHELL   13 TYPE P HAS NORMALIZATION  22.65171974
 *** WARNING! ATOM   4 SHELL   16 TYPE S HAS NORMALIZATION   1.32259418
 *** WARNING! ATOM   4 SHELL   18 TYPE P HAS NORMALIZATION  22.65171974
 *** WARNING! ATOM   5 SHELL   21 TYPE S HAS NORMALIZATION   1.32259418
 *** WARNING! ATOM   5 SHELL   23 TYPE P HAS NORMALIZATION  22.65171974

 ATOM      ATOMIC                      COORDINATES (BOHR)
           CHARGE         X                   Y                   Z
 H           1.0     0.0000000000        0.0000000000        2.8510371566
 H           1.0     0.0000000000        2.3779555939       -2.2270175101
 H           1.0     0.0000000000       -2.3779555939       -2.2270175101
 H           1.0     0.0000000000        3.7891122547        0.7013585723
 H           1.0     0.0000000000       -3.7891122547        0.7013585723
 C           6.0     0.0000000000        0.0000000000        0.8015556236
 N           7.0     0.0000000000        2.1884670999       -0.3292186130
 N           7.0     0.0000000000       -2.1884670999       -0.3292186130

          INTERNUCLEAR DISTANCES (ANGS.)
          ------------------------------

                    H              H              H              H         

  1  H               0.0000000      2.9672319 *    2.9672319 *    2.3053241 *  
  2  H               2.9672319 *    0.0000000      2.5167200 *    1.7201720 *  
  3  H               2.9672319 *    2.5167200 *    0.0000000      3.6127002    
  4  H               2.3053241 *    1.7201720 *    3.6127002      0.0000000    
  5  H               2.3053241 *    3.6127002      1.7201720 *    4.0102240    
  6  C               1.0845390 *    2.0376367 *    2.0376367 *    2.0058129 *  
  7  N               2.0428857 *    1.0092655 *    2.6168260 *    1.0074059 *  
  8  N               2.0428857 *    2.6168260 *    1.0092655 *    3.2098665    

                    H              C              N              N         

  1  H               2.3053241 *    1.0845390 *    2.0428857 *    2.0428857 *  
  2  H               3.6127002      2.0376367 *    1.0092655 *    2.6168260 *  
  3  H               1.7201720 *    2.0376367 *    2.6168260 *    1.0092655 *  
  4  H               4.0102240      2.0058129 *    1.0074059 *    3.2098665    
  5  H               0.0000000      2.0058129 *    3.2098665      1.0074059 *  
  6  C               2.0058129 *    0.0000000      1.3035429 *    1.3035429 *  
  7  N               3.2098665      1.3035429 *    0.0000000      2.3161740 *  
  8  N               1.0074059 *    1.3035429 *    2.3161740 *    0.0000000    

  * ... LESS THAN  3.000


     ATOMIC BASIS SET
     ----------------
 THE CONTRACTED PRIMITIVE FUNCTIONS HAVE BEEN UNNORMALIZED
 THE CONTRACTED BASIS FUNCTIONS ARE NOW NORMALIZED TO UNITY

  SHELL TYPE  PRIMITIVE        EXPONENT          CONTRACTION COEFFICIENT(S)

 H         

      1   S       1             0.0130000    0.000933751491
      1   S       2             0.0299000   -0.002802577067
      1   S       3             0.0687700    0.076304426024
      1   S       4             0.1581700    0.305115864344
      1   S       5             0.3637920    0.367168015485
      1   S       6             0.8367210    0.224620137364
      1   S       7             1.9244580    0.128877544677
      1   S       8             4.4262540    0.039632857196
      1   S       9            10.1803850   -0.000597812569

      2   S      10             0.1704830    1.000000000000

      3   P      11             0.0030000    0.028133435917
      3   P      12             0.0078000   -0.020681020122
      3   P      13             0.0202810   -0.001223192866
      3   P      14             0.0527300   -0.005391109298
      3   P      15             0.1370970   -0.261174328600
      3   P      16             0.3564510   -0.413054109456
      3   P      17             0.9267740   -0.315515804256
      3   P      18             2.4096120   -0.212812906956
      3   P      19             6.2649910   -0.007860146750

      4   S      20             0.0297400    1.000000000000

      5   P      21             0.1410000    1.000000000000

 H         

      6   S      22             0.0130000    0.000933751491
      6   S      23             0.0299000   -0.002802577067
      6   S      24             0.0687700    0.076304426024
      6   S      25             0.1581700    0.305115864344
      6   S      26             0.3637920    0.367168015485
      6   S      27             0.8367210    0.224620137364
      6   S      28             1.9244580    0.128877544677
      6   S      29             4.4262540    0.039632857196
      6   S      30            10.1803850   -0.000597812569

      7   S      31             0.1704830    1.000000000000

      8   P      32             0.0030000    0.028133435917
      8   P      33             0.0078000   -0.020681020122
      8   P      34             0.0202810   -0.001223192866
      8   P      35             0.0527300   -0.005391109298
      8   P      36             0.1370970   -0.261174328600
      8   P      37             0.3564510   -0.413054109456
      8   P      38             0.9267740   -0.315515804256
      8   P      39             2.4096120   -0.212812906956
      8   P      40             6.2649910   -0.007860146750

      9   S      41             0.0297400    1.000000000000

     10   P      42             0.1410000    1.000000000000

 H         

     11   S      43             0.0130000    0.000933751491
     11   S      44             0.0299000   -0.002802577067
     11   S      45             0.0687700    0.076304426024
     11   S      46             0.1581700    0.305115864344
     11   S      47             0.3637920    0.367168015485
     11   S      48             0.8367210    0.224620137364
     11   S      49             1.9244580    0.128877544677
     11   S      50             4.4262540    0.039632857196
     11   S      51            10.1803850   -0.000597812569

     12   S      52             0.1704830    1.000000000000

     13   P      53             0.0030000    0.028133435917
     13   P      54             0.0078000   -0.020681020122
     13   P      55             0.0202810   -0.001223192866
     13   P      56             0.0527300   -0.005391109298
     13   P      57             0.1370970   -0.261174328600
     13   P      58             0.3564510   -0.413054109456
     13   P      59             0.9267740   -0.315515804256
     13   P      60             2.4096120   -0.212812906956
     13   P      61             6.2649910   -0.007860146750

     14   S      62             0.0297400    1.000000000000

     15   P      63             0.1410000    1.000000000000

 H         

     16   S      64             0.0130000    0.000933751491
     16   S      65             0.0299000   -0.002802577067
     16   S      66             0.0687700    0.076304426024
     16   S      67             0.1581700    0.305115864344
     16   S      68             0.3637920    0.367168015485
     16   S      69             0.8367210    0.224620137364
     16   S      70             1.9244580    0.128877544677
     16   S      71             4.4262540    0.039632857196
     16   S      72            10.1803850   -0.000597812569

     17   S      73             0.1704830    1.000000000000

     18   P      74             0.0030000    0.028133435917
     18   P      75             0.0078000   -0.020681020122
     18   P      76             0.0202810   -0.001223192866
     18   P      77             0.0527300   -0.005391109298
     18   P      78             0.1370970   -0.261174328600
     18   P      79             0.3564510   -0.413054109456
     18   P      80             0.9267740   -0.315515804256
     18   P      81             2.4096120   -0.212812906956
     18   P      82             6.2649910   -0.007860146750

     19   S      83             0.0297400    1.000000000000

     20   P      84             0.1410000    1.000000000000

 H         

     21   S      85             0.0130000    0.000933751491
     21   S      86             0.0299000   -0.002802577067
     21   S      87             0.0687700    0.076304426024
     21   S      88             0.1581700    0.305115864344
     21   S      89             0.3637920    0.367168015485
     21   S      90             0.8367210    0.224620137364
     21   S      91             1.9244580    0.128877544677
     21   S      92             4.4262540    0.039632857196
     21   S      93            10.1803850   -0.000597812569

     22   S      94             0.1704830    1.000000000000

     23   P      95             0.0030000    0.028133435917
     23   P      96             0.0078000   -0.020681020122
     23   P      97             0.0202810   -0.001223192866
     23   P      98             0.0527300   -0.005391109298
     23   P      99             0.1370970   -0.261174328600
     23   P     100             0.3564510   -0.413054109456
     23   P     101             0.9267740   -0.315515804256
     23   P     102             2.4096120   -0.212812906956
     23   P     103             6.2649910   -0.007860146750

     24   S     104             0.0297400    1.000000000000

     25   P     105             0.1410000    1.000000000000

 C         

     26   S     106             0.0513440    0.013990987871
     26   S     107             0.1026190    0.169851852753
     26   S     108             0.2051000    0.397528655377
     26   S     109             0.4099240    0.380368670253
     26   S     110             0.8192970    0.180112843858
     26   S     111             1.6374940   -0.033511970948
     26   S     112             3.2727910   -0.121498894671
     26   S     113             6.5411870    0.015175986844
     26   S     114            13.0735940   -0.000704999389

     27   S     115             0.1278520    1.000000000000

     28   P     116             0.0292810    0.001787000047
     28   P     117             0.0585470    0.050426001336
     28   P     118             0.1170630    0.191634005079
     28   P     119             0.2340640    0.302667008021
     28   P     120             0.4680030    0.289868007682
     28   P     121             0.9357570    0.210979005591
     28   P     122             1.8710160    0.112024002969
     28   P     123             3.7410350    0.054425001442
     28   P     124             7.4800760    0.021931000581

     29   P     125             0.1491610    1.000000000000

     30   D     126             0.5611600    1.000000000000

     31   S     127             0.0469000    1.000000000000

     32   P     128             0.0404100    1.000000000000

     33   D     129             0.1510000    1.000000000000

 N         

     34   S     130             0.0988690    0.067266010234
     34   S     131             0.2114430    0.334290050859
     34   S     132             0.4521970    0.454257069111
     34   S     133             0.9670800    0.267861040752
     34   S     134             2.0682210    0.000248000038
     34   S     135             4.4231500   -0.132606020175
     34   S     136             9.4594620    0.014437002196
     34   S     137            20.2302460    0.000359000055
     34   S     138            43.2649190   -0.000094000014

     35   S     139             0.1751230    1.000000000000

     36   P     140             0.0732340    0.035757988749
     36   P     141             0.1458670    0.153944951562
     36   P     142             0.2905350    0.277655912638
     36   P     143             0.5786830    0.297675906338
     36   P     144             1.1526120    0.234402926247
     36   P     145             2.2957560    0.140320955849
     36   P     146             4.5726520    0.067218978850
     36   P     147             9.1077390    0.031593990059
     36   P     148            18.1406570    0.003300998961

     37   P     149             0.2230420    1.000000000000

     38   D     150             0.8320580    1.000000000000

     39   S     151             0.0612400    1.000000000000

     40   P     152             0.0561100    1.000000000000

     41   D     153             0.2300000    1.000000000000

 N         

     42   S     154             0.0988690    0.067266010234
     42   S     155             0.2114430    0.334290050859
     42   S     156             0.4521970    0.454257069111
     42   S     157             0.9670800    0.267861040752
     42   S     158             2.0682210    0.000248000038
     42   S     159             4.4231500   -0.132606020175
     42   S     160             9.4594620    0.014437002196
     42   S     161            20.2302460    0.000359000055
     42   S     162            43.2649190   -0.000094000014

     43   S     163             0.1751230    1.000000000000

     44   P     164             0.0732340    0.035757988749
     44   P     165             0.1458670    0.153944951562
     44   P     166             0.2905350    0.277655912638
     44   P     167             0.5786830    0.297675906338
     44   P     168             1.1526120    0.234402926247
     44   P     169             2.2957560    0.140320955849
     44   P     170             4.5726520    0.067218978850
     44   P     171             9.1077390    0.031593990059
     44   P     172            18.1406570    0.003300998961

     45   P     173             0.2230420    1.000000000000

     46   D     174             0.8320580    1.000000000000

     47   S     175             0.0612400    1.000000000000

     48   P     176             0.0561100    1.000000000000

     49   D     177             0.2300000    1.000000000000

 TOTAL NUMBER OF BASIS SET SHELLS             =   49
 NUMBER OF CARTESIAN GAUSSIAN BASIS FUNCTIONS =  117
 NOTE: THIS RUN WILL RESTRICT THE MO VARIATION SPACE TO SPHERICAL HARMONICS.
 THE NUMBER OF ORBITALS KEPT IN THE VARIATIONAL SPACE WILL BE PRINTED LATER.
 NUMBER OF ELECTRONS                          =   24
 CHARGE OF MOLECULE                           =    1
 SPIN MULTIPLICITY                            =    1
 NUMBER OF OCCUPIED ORBITALS (ALPHA)          =   12
 NUMBER OF OCCUPIED ORBITALS (BETA )          =   12
 TOTAL NUMBER OF ATOMS                        =    8
 THE NUCLEAR REPULSION ENERGY IS       80.0312601802
 NOTE THIS RUN IS USING CORE POTENTIALS, AND THE NUMBER OF ELECTRONS,
 OCCUPIED ORBITALS, AND NUCLEAR REPULSION ENERGY WILL BE ADJUSTED BELOW
 AFTER REMOVAL OF THE CORE CHARGES.

     $CONTRL OPTIONS
     ---------------
 SCFTYP=MCSCF        RUNTYP=ENERGY       EXETYP=RUN     
 MPLEVL=       0     CITYP =NONE         CCTYP =NONE         VBTYP =NONE    
 MULT  =       1     ICHARG=       1     NZVAR =       0     COORD =UNIQUE  
 PP    =READ         RELWFN=NONE         LOCAL =NONE         NUMGRD=       F
 ISPHER=       1     NOSYM =       0     MAXIT =     100     UNITS =ANGS    
 PLTORB=       F     MOLPLT=       F     AIMPAC=       F     FRIEND=        
 NPRINT=       7     IREST =       0     GEOM  =INPUT   
 NORMF =       0     NORMP =       0     ITOL  =      20     ICUT  =       9
 INTTYP=BEST         GRDTYP=BEST         QMTTOL= 1.0E-06

     $SYSTEM OPTIONS
     ---------------
  REPLICATED MEMORY=     1000000 WORDS (ON EVERY NODE).
 DISTRIBUTED MEMDDI=           0 MILLION WORDS IN AGGREGATE,
 MEMDDI DISTRIBUTED OVER   1 PROCESSORS IS           0 WORDS/PROCESSOR.
 TOTAL MEMORY REQUESTED ON EACH PROCESSOR=     1000000 WORDS.
 TIMLIM=      525600.00 MINUTES, OR   365.00 DAYS.
 PARALL= F  BALTYP=  NXTVAL  KDIAG=    0  COREFL= F

          --------------
          ECP POTENTIALS
          --------------

 PARAMETERS FOR "H       " ON ATOM    1 WITH ZCORE   0 AND LMAX  0 ARE
 FOR L= 0      COEFF    N           ZETA
    1        1.00000    1        4.47692
    2        4.47692    3        2.97636
    3       -4.32112    2        3.01842

 PARAMETERS FOR "H       " ON ATOM    2 ARE THE SAME AS ATOM   1

 PARAMETERS FOR "H       " ON ATOM    3 ARE THE SAME AS ATOM   1

 PARAMETERS FOR "H       " ON ATOM    4 ARE THE SAME AS ATOM   1

 PARAMETERS FOR "H       " ON ATOM    5 ARE THE SAME AS ATOM   1

 PARAMETERS FOR "C       " ON ATOM    6 WITH ZCORE   2 AND LMAX  1 ARE
 FOR L= 1      COEFF    N           ZETA
    1        4.00000    1        8.35974
    2       33.43895    3        4.48362
    3      -19.17537    2        3.93831
 FOR L= 0      COEFF    N           ZETA
    1       22.55164    2        5.02992

 PARAMETERS FOR "N       " ON ATOM    7 WITH ZCORE   2 AND LMAX  1 ARE
 FOR L= 1      COEFF    N           ZETA
    1        5.00000    1        9.23501
    2       46.17505    3        7.66830
    3      -30.18894    2        7.34486
 FOR L= 0      COEFF    N           ZETA
    1       31.69720    2        6.99537

 PARAMETERS FOR "N       " ON ATOM    8 ARE THE SAME AS ATOM   7

 THE ECP RUN REMOVES    6 CORE ELECTRONS, AND THE SAME NUMBER OF PROTONS.
 NUMBER OF ELECTRONS KEPT IN THE CALCULATION IS =   18
 NUMBER OF OCCUPIED ORBITALS (ALPHA) KEPT IS    =    9
 NUMBER OF OCCUPIED ORBITALS (BETA ) KEPT IS    =    9
 THE ADJUSTED NUCLEAR REPULSION ENERGY=       46.9132012474
          ECP ANGULAR INTS.........     0.00 SECONDS

          ----------------
          PROPERTIES INPUT
          ----------------

     MOMENTS            FIELD           POTENTIAL          DENSITY
 IEMOM =       1   IEFLD =       0   IEPOT =       0   IEDEN =       0
 WHERE =COMASS     WHERE =NUCLEI     WHERE =NUCLEI     WHERE =NUCLEI  
 OUTPUT=BOTH       OUTPUT=BOTH       OUTPUT=BOTH       OUTPUT=BOTH    
 IEMINT=       0   IEFINT=       0                     IEDINT=       0
                                                       MORB  =       0

     -------------------------------
     INTEGRAL TRANSFORMATION OPTIONS
     -------------------------------
     NWORD  =       0     CUTOFF = 1.0E-09
     MPTRAN =       0     DIRTRF =       F
     AOINTS =DUP     

          ----------------------
          MCSCF INPUT PARAMETERS
          ----------------------
 CONVERGER SELECTION: FOCAS = F  SOSCF = T  FULLNR = F  QUD = F  JACOBI = F
 SECULAR EQUATION METHOD CISTEP = GUGA    
 --- GENERAL INPUT OPTIONS:
 MAXIT =    1000  MICIT =       5  ACURCY= 1.000E-05
 DAMP  =   0.000  CANONC=       T  ENGTOL= 1.000E-10
 EKT   =       F  NPUNCH=       2  NWORD =         0
 --- INPUT FOR SOSCF CONVERGER:
 FORS  =       T  NOFO  =       1

          ----------------------
          INTEGRAL INPUT OPTIONS
          ----------------------
 NOPK  =       1 NORDER=       0 SCHWRZ=       T

     ------------------------------------------
     THE POINT GROUP IS C1 , NAXIS= 0, ORDER= 1
     ------------------------------------------

 -- VARIATIONAL SPACE WILL BE RESTRICTED TO PURE SPHERICAL HARMONICS ONLY --
 AFTER EXCLUDING CONTAMINANT COMBINATIONS FROM THE CARTESIAN GAUSSIAN BASIS
 SET, THE NUMBER OF SPHERICAL HARMONICS KEPT IN THE VARIATION SPACE IS  111

     DIMENSIONS OF THE SYMMETRY SUBSPACES ARE
 A   =  111

 ..... DONE SETTING UP THE RUN .....
 STEP CPU TIME =     0.02 TOTAL CPU TIME =        0.0 (    0.0 MIN)
 TOTAL WALL CLOCK TIME=        0.0 SECONDS, CPU UTILIZATION IS 100.00%

          ********************
          1 ELECTRON INTEGRALS
          ********************
 TIME TO DO ORDINARY INTEGRALS=      0.01
 TIME TO DO      ECP INTEGRALS=      0.11
 TIME TO DO   DIPOLE INTEGRALS=      0.01
 ...... END OF ONE-ELECTRON INTEGRALS ......
 STEP CPU TIME =     0.13 TOTAL CPU TIME =        0.2 (    0.0 MIN)
 TOTAL WALL CLOCK TIME=        0.0 SECONDS, CPU UTILIZATION IS 100.00%

          -------------
          GUESS OPTIONS
          -------------
          GUESS =MOREAD            NORB  =     111          NORDER=       0
          MIX   =       F          PRTMO =       F          PUNMO =       F
          TOLZ  = 1.0E-08          TOLE  = 1.0E-05
          SYMDEN=       F          PURIFY=       F

 INITIAL GUESS ORBITALS GENERATED BY MOREAD   ROUTINE.

 STATISTICS FOR GENERATION OF SYMMETRY ORBITAL -Q- MATRIX
 NUMBER OF CARTESIAN ATOMIC ORBITALS=        117
 NUMBER OF SPHERICAL CONTAMINANTS DROPPED=     6
 NUMBER OF LINEARLY DEPENDENT MOS DROPPED=     0
 TOTAL NUMBER OF MOS IN VARIATION SPACE=     111

 SYMMETRIES FOR INITIAL GUESS ORBITALS FOLLOW.   BOTH SET(S).
    10 ORBITALS ARE OCCUPIED (    0 CORE ORBITALS).
     1=A        2=A        3=A        4=A        5=A        6=A        7=A   
     8=A        9=A       10=A       11=A       12=A       13=A       14=A   
    15=A       16=A       17=A       18=A       19=A       20=A       21=A   
    22=A       23=A       24=A       25=A       26=A       27=A       28=A   
    29=A       30=A       31=A       32=A       33=A       34=A       35=A   
    36=A       37=A       38=A       39=A       40=A       41=A       42=A   
    43=A       44=A       45=A       46=A       47=A       48=A       49=A   
    50=A       51=A       52=A       53=A       54=A       55=A       56=A   
    57=A       58=A       59=A       60=A       61=A       62=A       63=A   
    64=A       65=A       66=A       67=A       68=A       69=A       70=A   
    71=A       72=A       73=A       74=A       75=A       76=A       77=A   
    78=A       79=A       80=A       81=A       82=A       83=A       84=A   
    85=A       86=A       87=A       88=A       89=A       90=A       91=A   
    92=A       93=A       94=A       95=A       96=A       97=A       98=A   
    99=A      100=A      101=A      102=A      103=A      104=A      105=A   
   106=A      107=A      108=A      109=A      110=A      111=A   
 ...... END OF INITIAL ORBITAL SELECTION ......
 STEP CPU TIME =     0.01 TOTAL CPU TIME =        0.2 (    0.0 MIN)
 TOTAL WALL CLOCK TIME=        0.0 SECONDS, CPU UTILIZATION IS 100.00%

                    ----------------------
                    AO INTEGRAL TECHNOLOGY
                    ----------------------
     S,P,L SHELL ROTATED AXIS INTEGRALS, REPROGRAMMED BY
        KAZUYA ISHIMURA (IMS) AND JOSE SIERRA (SYNSTAR).
     S,P,D,L SHELL ROTATED AXIS INTEGRALS PROGRAMMED BY
        KAZUYA ISHIMURA (INSTITUTE FOR MOLECULAR SCIENCE).
     S,P,D,F,G SHELL TO TOTAL QUARTET ANGULAR MOMENTUM SUM 5,
        ERIC PROGRAM BY GRAHAM FLETCHER (ELORET AND NASA ADVANCED
        SUPERCOMPUTING DIVISION, AMES RESEARCH CENTER).
     S,P,D,F,G,L SHELL GENERAL RYS QUADRATURE PROGRAMMED BY
        MICHEL DUPUIS (PACIFIC NORTHWEST NATIONAL LABORATORY).

          --------------------
          2 ELECTRON INTEGRALS
          --------------------

 THE -PK- OPTION IS OFF, THE INTEGRALS ARE NOT IN SUPERMATRIX FORM.
 STORING   15000 INTEGRALS/RECORD ON DISK, USING 12 BYTES/INTEGRAL.
 TWO ELECTRON INTEGRAL EVALUATION REQUIRES   91621 WORDS OF MEMORY.
 SCHWARZ INEQUALITY OVERHEAD:      6903 INTEGRALS, T=        0.04
 II,JST,KST,LST =  1  1  1  1 NREC =         1 INTLOC =    1
 II,JST,KST,LST =  2  1  1  1 NREC =         1 INTLOC =    2
 II,JST,KST,LST =  3  1  1  1 NREC =         1 INTLOC =    7
 II,JST,KST,LST =  4  1  1  1 NREC =         1 INTLOC =   34
 II,JST,KST,LST =  5  1  1  1 NREC =         1 INTLOC =   67
 II,JST,KST,LST =  6  1  1  1 NREC =         1 INTLOC =  214
 II,JST,KST,LST =  7  1  1  1 NREC =         1 INTLOC =  529
 II,JST,KST,LST =  8  1  1  1 NREC =         1 INTLOC =  960
 II,JST,KST,LST =  9  1  1  1 NREC =         1 INTLOC = 2759
 II,JST,KST,LST = 10  1  1  1 NREC =         1 INTLOC = 3764
 II,JST,KST,LST = 11  1  1  1 NREC =         1 INTLOC = 7491
 II,JST,KST,LST = 12  1  1  1 NREC =         1 INTLOC = 9438
 II,JST,KST,LST = 13  1  1  1 NREC =         1 INTLOC =11734
 II,JST,KST,LST = 14  1  1  1 NREC =         2 INTLOC = 4519
 II,JST,KST,LST = 15  1  1  1 NREC =         2 INTLOC = 8267
 II,JST,KST,LST = 16  1  1  1 NREC =         3 INTLOC = 5470
 II,JST,KST,LST = 17  1  1  1 NREC =         3 INTLOC =12044
 II,JST,KST,LST = 18  1  1  1 NREC =         4 INTLOC = 4435
 II,JST,KST,LST = 19  1  1  1 NREC =         5 INTLOC =13429
 II,JST,KST,LST = 20  1  1  1 NREC =         6 INTLOC = 9169
 II,JST,KST,LST = 21  1  1  1 NREC =         8 INTLOC =13306
 II,JST,KST,LST = 22  1  1  1 NREC =         9 INTLOC =13255
 II,JST,KST,LST = 23  1  1  1 NREC =        10 INTLOC =14572
 II,JST,KST,LST = 24  1  1  1 NREC =        14 INTLOC = 5078
 II,JST,KST,LST = 25  1  1  1 NREC =        15 INTLOC =11744
 II,JST,KST,LST = 26  1  1  1 NREC =        20 INTLOC = 2949
 II,JST,KST,LST = 27  1  1  1 NREC =        22 INTLOC = 1672
 II,JST,KST,LST = 28  1  1  1 NREC =        24 INTLOC = 2511
 II,JST,KST,LST = 29  1  1  1 NREC =        30 INTLOC = 5659
 II,JST,KST,LST = 30  1  1  1 NREC =        37 INTLOC =10867
 II,JST,KST,LST = 31  1  1  1 NREC =        56 INTLOC = 4492
 II,JST,KST,LST = 32  1  1  1 NREC =        60 INTLOC = 4902
 II,JST,KST,LST = 33  1  1  1 NREC =        72 INTLOC = 5287
 II,JST,KST,LST = 34  1  1  1 NREC =       101 INTLOC = 7870
 II,JST,KST,LST = 35  1  1  1 NREC =       108 INTLOC =  625
 II,JST,KST,LST = 36  1  1  1 NREC =       114 INTLOC =13116
 II,JST,KST,LST = 37  1  1  1 NREC =       135 INTLOC = 4475
 II,JST,KST,LST = 38  1  1  1 NREC =       158 INTLOC = 4318
 II,JST,KST,LST = 39  1  1  1 NREC =       212 INTLOC =11136
 II,JST,KST,LST = 40  1  1  1 NREC =       223 INTLOC =12674
 II,JST,KST,LST = 41  1  1  1 NREC =       256 INTLOC =12954
 II,JST,KST,LST = 42  1  1  1 NREC =       333 INTLOC = 5929
 II,JST,KST,LST = 43  1  1  1 NREC =       348 INTLOC =11450
 II,JST,KST,LST = 44  1  1  1 NREC =       364 INTLOC =10073
 II,JST,KST,LST = 45  1  1  1 NREC =       411 INTLOC = 9830
 II,JST,KST,LST = 46  1  1  1 NREC =       462 INTLOC =13937
 II,JST,KST,LST = 47  1  1  1 NREC =       579 INTLOC = 3552
 II,JST,KST,LST = 48  1  1  1 NREC =       602 INTLOC = 1708
 II,JST,KST,LST = 49  1  1  1 NREC =       669 INTLOC = 6512
 SCHWARZ INEQUALITY TEST SKIPPED         0 INTEGRAL BLOCKS.
 TOTAL NUMBER OF NONZERO TWO-ELECTRON INTEGRALS =            12287981
        820 INTEGRAL RECORDS WERE STORED ON DISK FILE  8.
  ...... END OF TWO-ELECTRON INTEGRALS .....
 STEP CPU TIME =     6.08 TOTAL CPU TIME =        6.2 (    0.1 MIN)
 TOTAL WALL CLOCK TIME=        6.0 SECONDS, CPU UTILIZATION IS 104.00%

          -----------------
          MCSCF CALCULATION
          -----------------

 ----- NUCLEAR ENERGY ----- =        46.9132012474

          -----------------------     ----------------------------
          GUGA DISTINCT ROW TABLE     WRITTEN BY B.R.BROOKS,P.SAXE
          -----------------------     ----------------------------

      GROUP=C1           NPRT=       2
       FORS=       T   INTACT=       F
       FOCI=       F   MXNINT=  600000
       SOCI=       F   MXNEME=   10000
     IEXCIT=       0

      -CORE-    -INTERNAL-  -EXTERNAL-
     NFZC=   0   NDOC=   1   NEXT=   0
     NMCC=   8   NAOS=   0   NFZV=   0
                 NBOS=   0
                 NALP=   0
                 NVAL=   1

 THE MAXIMUM ELECTRON EXCITATION WILL BE   2

 SYMMETRIES FOR THE   8 CORE,   2 ACTIVE,   0 EXTERNAL MO-S ARE
     CORE= A     A     A     A     A     A     A     A   
   ACTIVE= A     A   
           DOC   VAL 

 MOLECULAR CHARGE          =    1
 NUMBER OF ALPHA ELECTRONS =    9
 NUMBER OF  BETA ELECTRONS =    9

 THE ELECTRONIC STATE IS  1-A   

 THE DISTINCT ROW TABLE HAS         5 ROWS.
  THE WAVEFUNCTION CONTAINS         3 WALKS (CSF-S).


          DETERMINANT CONTRIBUTION TO CSF'S (BETA IS MINUS)
          -------------------------------------------------
 CASE VECTOR =       1
 14

 FOR MS=S-0
 CSF      1: C(  1)= 1.000000 :    9 -9
 CASE VECTOR =       2
 23

 FOR MS=S-0
 CSF      2: C(  1)=-0.707107 :  -10  9
             C(  2)= 0.707107 :   10 -9
 CASE VECTOR =       3
 41

 FOR MS=S-0
 CSF      3: C(  1)= 1.000000 :   10-10

 TOTAL NUMBER OF INTEGRALS =          9
 NUMBER OF INTEGRALS/GROUP =          9
 NUMBER OF INTEGRAL GROUPS =          1
 MAXIMUM RECORD SIZES ARE     200 FOR UNIT 11      22 FOR UNIT 12
                            30001 FOR UNIT 15   30001 FOR UNIT 16
 ...... END OF -DRT- GENERATION ...... 
 STEP CPU TIME =     0.01 TOTAL CPU TIME =        6.2 (    0.1 MIN)
 TOTAL WALL CLOCK TIME=        6.0 SECONDS, CPU UTILIZATION IS 104.17%
 OPENING FILE DAFL30 WITH      81 LOGICAL RECORDS OF   13689 WORDS
 WITH A MAXIMUM OF         567 PHYSICAL RECORDS OF    2048 WORDS

          ------------------------------
          CASSCF INTEGRAL TRANSFORMATION
          ------------------------------
 AO INTEGRALS WILL BE READ IN FROM DISK...
 MEMORY WHICH WOULD BE NEEDED FOR SINGLE PASS TRANSFORMATION =    1730527

 ----- CHOOSING THREE STEPS TRANSFORMATION -----
 NUMBER OF WORDS USED      =     933349
 NUMBER OF WORDS AVAILABLE =    1000000
 NUMBER OF PASSES          =          2
 PASS #   1 COMPLETED IN         0.2 SECONDS.
 PASS #   2 COMPLETED IN         0.2 SECONDS.

 ----- NUCLEAR REPULSION ENERGY =     46.91320125
 ----- FROZEN CORE ENERGY       =    -72.88213359

 ... SYMMETRY ...           CPU =    0.00
 ... (PQ|RS) -> (PQ|KL) ... CPU =    0.40
 ... (PQ|KL) -> (IJ|KL) ... CPU =    0.00

 NUMBER OF (PQ|KL) INTEGRALS WRITTEN      10715
 NUMBER OF (IJ|KL) INTEGRALS WRITTEN          4
 ..... END OF CAS INTEGRAL TRANSFORMATION .....
 STEP CPU TIME =     0.40 TOTAL CPU TIME =        6.7 (    0.1 MIN)
 TOTAL WALL CLOCK TIME=        6.0 SECONDS, CPU UTILIZATION IS 110.83%

          ------------------------
          GUGA-CI INTEGRAL SORTING
          ------------------------

    630017 WORDS NEEDED TO SORT              9 GUGA INTEGRALS IN MEMORY
   1000000 WORDS ARE AVAILABLE
 CHOOSING IN-MEMORY SORTING...
 IN CORE ALGORITHM SORTED              3 NON-ZERO 1E- INTEGRALS
 IN CORE ALGORITHM SORTED              4 NON-ZERO 2E- INTEGRALS
 ...... END OF INTEGRAL SORTING ...... 
 STEP CPU TIME =     0.00 TOTAL CPU TIME =        6.7 (    0.1 MIN)
 TOTAL WALL CLOCK TIME=        6.0 SECONDS, CPU UTILIZATION IS 110.83%

 -------------------------     ---------------------------------------
 ENERGY MATRIX CALCULATION     WRITTEN BY B.R.BROOKS,W.D.LAIDIG,P.SAXE
 -------------------------     ---------------------------------------

 COMPUTING THE HAMILTONIAN FOR THE         3 CSF-S...

           8 IS THE TOTAL NUMBER OF GENERATED LOOPS
           8 WERE CREATED BY THE LOOP-DRIVEN ALGORITHM
           0 WERE CREATED IMPLICITLY

           6 IS THE TOTAL NUMBER OF PROCESSED LOOPS
           5     DIAGONAL LOOPS ARE STORED ON WORK15 IN     1 BUFFERS OF  10000 ELEMENTS.
           1 OFF DIAGONAL LOOPS ARE STORED ON WORK16 IN     1 BUFFERS OF  10000 ELEMENTS.
 ...... END OF ENERGY MATRIX CALCULATION ...... 
 STEP CPU TIME =     0.01 TOTAL CPU TIME =        6.7 (    0.1 MIN)
 TOTAL WALL CLOCK TIME=        6.0 SECONDS, CPU UTILIZATION IS 111.00%

          -----------------------------------------
          DAVIDSON METHOD CI-MATRIX DIAGONALIZATION
                   WRITTEN BY STEVE ELBERT
          -----------------------------------------
 NUMBER OF STATES REQUESTED =     2
 MAX. NUMB. OF EXPAN. VEC   =    30
 MAX. NUMB. IMPROVED STATES =     2
 MAX. NUMB. OF ITERATIONS   =    50
 CONVERGENCE CRITERION      =    1.0E-05

 CHOOSING TO SOLVE SECULAR EQUATION IN MEMORY
 NUMBER OF WORDS AVAILABLE =    1000000
 NUMBER OF WORDS USED      =      30996
 ENERGY MATRIX BUFFER SIZE =      10000
 SOLUTION FOUND WITH DIRECT METHOD

 STATE #    1  ENERGY =     -27.695802081

      CSF      COEF    OCCUPANCY (IGNORING CORE)
      ---      ----    --------- --------- -----
        1    0.999999  20

 STATE #    2  ENERGY =     -27.321530299

      CSF      COEF    OCCUPANCY (IGNORING CORE)
      ---      ----    --------- --------- -----
        2    1.000000  11

 RENORMALIZED DAVIDSON CORRECTION FOR     1-REFERENCE CI.
 C0SQ= 0.999997 EREF=      -27.695799 E-E(REF)=   0.000003 E(Q)=   0.000000
 GIVES A E(SD+Q) ESTIMATE OF      -27.6958020811
 ...... END OF CI-MATRIX DIAGONALIZATION ......
 STEP CPU TIME =     0.00 TOTAL CPU TIME =        6.7 (    0.1 MIN)
 TOTAL WALL CLOCK TIME=        6.0 SECONDS, CPU UTILIZATION IS 111.00%

          -------------------------------------
          2-PARTICLE DENSITY MATRIX CALCULATION
          -------------------------------------
 2 BODY DENSITY IS AN AVERAGE OF  2 STATE(S).
   STATE    WEIGHT          ENERGY
     1    0.500000      -27.6958020811
     2    0.500000      -27.3215302994
            8 -DM2- LOOPS WERE GENERATED
            8 WERE CREATED BY THE LOOP-DRIVEN ALGORITHM
            0 WERE CREATED IMPLICITLY
          1 RECORDS OF LENGTH600000 WRITTEN TO FILE 15
 ...... END OF 2-PARTICLE DENSITY MATRIX CALCULATION ......
 STEP CPU TIME =     0.00 TOTAL CPU TIME =        6.7 (    0.1 MIN)
 TOTAL WALL CLOCK TIME=        6.0 SECONDS, CPU UTILIZATION IS 111.00%

          ----------------------------------
          2-PARTICLE DENSITY MATRIX LABELING
          ----------------------------------
     646453 WORDS NEEDED TO LABEL DM2 MATRIX
          1 RECORDS OF LENGTH600000  READ FROM FILE 15
          1 RECORDS OF LENGTH 15000 WRITTEN TO FILE 16
 ...... END OF 2-PARTICLE DENSITY MATRIX LABELING ......
 STEP CPU TIME =     0.00 TOTAL CPU TIME =        6.7 (    0.1 MIN)
 TOTAL WALL CLOCK TIME=        6.0 SECONDS, CPU UTILIZATION IS 111.00%

          --------------
          -DM2- ORDERING
          --------------
      30010 WORDS NEEDED (   1000000 AVAILABLE) TO ORDER DM2 IN MEMORY
 CHOOSING IN MEMORY ORDERING...
                               1 RECORDS OF LENGTH 15000  READ FROM FILE 16
          4 DM2 VALUES IN      1 RECORDS OF LENGTH 15000 WRITTEN TO FILE 15
 ...... END OF -DM2- ORDERING ...... 
 STEP CPU TIME =     0.00 TOTAL CPU TIME =        6.7 (    0.1 MIN)
 TOTAL WALL CLOCK TIME=        6.0 SECONDS, CPU UTILIZATION IS 111.00%

          --------------------------------------
          APPROXIMATE SECOND-ORDER MCSCF PROGRAM
          --------------------------------------
          PROGRAM WRITTEN BY G.CHABAN, A.MARQUEZ, AND M.DUPUIS

  NUMBER OF WORDS NEEDED     =     126168
  NUMBER AVAILABLE           =    1000000

 ----- GAMMA(IJKL)*(PQ|KL) PRODUCTS ----- CPU TIME =      0.000
 ----- ORBITAL SYMMETRY             ----- CPU TIME =      0.000
 ----- FOCK OPERATORS CONSTRUCTION  ----- CPU TIME =      0.150
 ----- WARNING : CORE-ACTIVE GAP    =    0.46715
     MICIT =   1 ASYMM =    0.036432 ROTMAX =    0.026417
 ----- EFFECTIVE FOCK + ROTATE ORBS ----- CPU TIME =      0.000
     MICIT =   2 ASYMM =    0.019073 ROTMAX =    0.007672
     MICIT =   3 ASYMM =    0.018555 ROTMAX =    0.012678
     MICIT =   4 ASYMM =    0.017877 ROTMAX =    0.015623
     MICIT =   5 ASYMM =    0.017298 ROTMAX =    0.012663
 ..... DONE WITH CASSCF ORBITAL UPDATE .....
 STEP CPU TIME =     0.18 TOTAL CPU TIME =        6.8 (    0.1 MIN)
 TOTAL WALL CLOCK TIME=        6.0 SECONDS, CPU UTILIZATION IS 114.00%

 ITER     TOTAL ENERGY      DEL(E)  LAGRANGIAN ASYMMETRY   SQCDF  MICIT   DAMP
   1      -27.508666190 -0.508666190  0.036432   19   10 2.642E-02  5   0.0000
       ----------START APPROXIMATE SECOND ORDER MCSCF----------
   2      -27.522358130 -0.013691940  0.015431   19   10 2.106E-02  1   0.0000
   3      -27.527485069 -0.005126938  0.007287   19   10 3.280E-02  1   0.0000
   4      -27.529547950 -0.002062882  0.003088   51    4 5.979E-04  1   0.0000
   5      -27.529763981 -0.000216031  0.001646   69    9 1.515E-03  1   0.0000
   6      -27.529901564 -0.000137583  0.001007   11   10 1.535E-03  1   0.0000
   7      -27.529975504 -0.000073940  0.000718   26    6 1.714E-03  1   0.0000
   8      -27.530028331 -0.000052826  0.000614   23   10 4.339E-04  1   0.0000
   9      -27.530047332 -0.000019001  0.000315   23   10 2.868E-05  1   0.0000
  10      -27.530050744 -0.000003412  0.000164   13    8 3.088E-06  1   0.0000
  11      -27.530051057 -0.000000313  0.000034   13    8 3.505E-07  1   0.0000
  12      -27.530051102 -0.000000045  0.000012   30   10 9.475E-08  1   0.0000
  13      -27.530051112 -0.000000010  0.000008   13    8 2.267E-08  1   0.0000
  14      -27.530051113 -0.000000002  0.000003   13    8 1.687E-09  1   0.0000

          --------------------
          LAGRANGIAN CONVERGED
          --------------------

 FINAL MCSCF ENERGY IS      -27.5300511133 AFTER  14 ITERATIONS

 -MCCI- BASED ON OPTIMIZED ORBITALS
 ----------------------------------

 PLEASE NOTE: IF THE ACTIVE ORBITALS ARE CANONICALIZED BELOW,
 THE FOLLOWING CI EXPANSION COEFFICIENTS AND THE DENSITY DO NOT
 CORRESPOND TO THE PRINTED ORBITALS.  THE PRINTED EXPANSIONS MATCH
 THE ORBITALS USED DURING THE LAST ITERATION.  IF YOU WISH TO SEE
 CI EXPANSIONS BASED ON THE CANONICAL (OR NATURAL) ORBITALS, YOU
 MUST RUN A CI CALCULATION WITH THAT ORBITAL CHOICE READ IN $VEC.

 STATE #    1  ENERGY =     -27.687569173

      CSF      COEF    OCCUPANCY (IGNORING CORE)
      ---      ----    --------- --------- -----
        1    0.999989  20
        2    0.000000  11
        3   -0.004698  02

 STATE #    2  ENERGY =     -27.372533053

      CSF      COEF    OCCUPANCY (IGNORING CORE)
      ---      ----    --------- --------- -----
        1    0.000000  20
        2    1.000000  11
        3    0.000000  02

 DENSITY MATRIX OVER ACTIVE MO-S

             1           2

    1    1.4999779
    2    0.0000000   0.5000221

 FORMING THE "STANDARD FOCK OPERATOR" USING INTEGRALS FROM DISK...
     8 FILLED,    2 ACTIVE, AND  101 VIRTUAL ORBITALS  WILL BE CANONICALIZED

          ----------------------
          MCSCF NATURAL ORBITALS
          ----------------------

                      1          2          3          4          5

                   -1.5973    -1.4896    -1.1713    -1.0664    -1.0357

    1  H  1  S    0.073159   0.000000   0.220589   0.219224   0.000000
    2  H  1  S   -0.040915   0.000000   0.004935   0.070270   0.000000
    3  H  1  X    0.000000   0.000000   0.000000   0.000000   0.000000
    4  H  1  Y    0.000000  -0.004846   0.000000   0.000000  -0.007516
    5  H  1  Z    0.011335   0.000000   0.022155   0.018816   0.000000
    6  H  1  S    0.006186   0.000000   0.009387  -0.012840   0.000000
    7  H  1  X    0.000000   0.000000   0.000000   0.000000   0.000000
    8  H  1  Y    0.000000  -0.011058   0.000000   0.000000  -0.001727
    9  H  1  Z    0.009264   0.000000  -0.004582  -0.024524   0.000000
   10  H  2  S    0.113534   0.142662  -0.211671  -0.144726  -0.293762
   11  H  2  S    0.005287  -0.006846   0.039210   0.019405   0.036986
   12  H  2  X    0.000000   0.000000   0.000000   0.000000   0.000000
   13  H  2  Y    0.002752   0.003633   0.003019  -0.009313   0.003070
   14  H  2  Z   -0.018137  -0.020326   0.021467   0.012490   0.026388
   15  H  2  S    0.000808  -0.004760  -0.002022  -0.010369  -0.015273
   16  H  2  X    0.000000   0.000000   0.000000   0.000000   0.000000
   17  H  2  Y    0.006473   0.001558   0.007534  -0.005978   0.015055
   18  H  2  Z    0.004251   0.006975  -0.001197  -0.000130  -0.002494
   19  H  3  S    0.113534  -0.142662  -0.211671  -0.144726   0.293762
   20  H  3  S    0.005287   0.006846   0.039210   0.019405  -0.036986
   21  H  3  X    0.000000   0.000000   0.000000   0.000000   0.000000
   22  H  3  Y   -0.002752   0.003633  -0.003019   0.009313   0.003070
   23  H  3  Z   -0.018137   0.020326   0.021467   0.012490  -0.026388
   24  H  3  S    0.000808   0.004760  -0.002022  -0.010369   0.015273
   25  H  3  X    0.000000   0.000000   0.000000   0.000000   0.000000
   26  H  3  Y   -0.006473   0.001558  -0.007534   0.005978   0.015055
   27  H  3  Z    0.004251  -0.006975  -0.001197  -0.000130   0.002494
   28  H  4  S    0.105869   0.165097  -0.165790   0.274639  -0.029127
   29  H  4  S   -0.007902  -0.008306   0.031532  -0.033070  -0.003330
   30  H  4  X    0.000000   0.000000   0.000000   0.000000   0.000000
   31  H  4  Y    0.015954   0.020435  -0.009812   0.021491   0.004048
   32  H  4  Z    0.006594   0.012155  -0.014263   0.011717  -0.008731
   33  H  4  S   -0.001382  -0.003341  -0.001387   0.016730   0.006504
   34  H  4  X    0.000000   0.000000   0.000000   0.000000   0.000000
   35  H  4  Y    0.002040  -0.001857   0.004652  -0.005963   0.016199
   36  H  4  Z   -0.008186  -0.004799  -0.006516  -0.001594  -0.009891
   37  H  5  S    0.105869  -0.165097  -0.165790   0.274639   0.029127
   38  H  5  S   -0.007902   0.008306   0.031532  -0.033070   0.003330
   39  H  5  X    0.000000   0.000000   0.000000   0.000000   0.000000
   40  H  5  Y   -0.015954   0.020435   0.009812  -0.021491   0.004048
   41  H  5  Z    0.006594  -0.012155  -0.014263   0.011717   0.008731
   42  H  5  S   -0.001382   0.003341  -0.001387   0.016730  -0.006504
   43  H  5  X    0.000000   0.000000   0.000000   0.000000   0.000000
   44  H  5  Y   -0.002040  -0.001857  -0.004652   0.005963   0.016199
   45  H  5  Z   -0.008186   0.004799  -0.006516  -0.001594   0.009891
   46  C  6  S    0.533873   0.000000   0.617205   0.009930   0.000000
   47  C  6  S    0.047724   0.000000  -0.198793  -0.105754   0.000000
   48  C  6  X    0.000000   0.000000   0.000000   0.000000   0.000000
   49  C  6  Y    0.000000   0.334190   0.000000   0.000000   0.508301
   50  C  6  Z   -0.141711   0.000000   0.073304   0.414282   0.000000
   51  C  6  X    0.000000   0.000000   0.000000   0.000000   0.000000
   52  C  6  Y    0.000000  -0.023840   0.000000   0.000000  -0.090155
   53  C  6  Z    0.011679   0.000000  -0.037896  -0.180885   0.000000
   54  C  6 XX   -0.021174   0.000000  -0.013558   0.000507   0.000000
   55  C  6 YY    0.027093   0.000000   0.006326   0.006226   0.000000
   56  C  6 ZZ   -0.005919   0.000000   0.007233  -0.006733   0.000000
   57  C  6 XY    0.000000   0.000000   0.000000   0.000000   0.000000
   58  C  6 XZ    0.000000   0.000000   0.000000   0.000000   0.000000
   59  C  6 YZ    0.000000  -0.032732   0.000000   0.000000  -0.022090
   60  C  6  S    0.032454   0.000000  -0.061713  -0.015921   0.000000
   61  C  6  X    0.000000   0.000000   0.000000   0.000000   0.000000
   62  C  6  Y    0.000000   0.026596   0.000000   0.000000   0.008950
   63  C  6  Z   -0.012229   0.000000  -0.001528   0.002564   0.000000
   64  C  6 XX   -0.021561   0.000000   0.005476   0.011560   0.000000
   65  C  6 YY    0.027969   0.000000   0.007720   0.003100   0.000000
   66  C  6 ZZ   -0.006408   0.000000  -0.013196  -0.014660   0.000000
   67  C  6 XY    0.000000   0.000000   0.000000   0.000000   0.000000
   68  C  6 XZ    0.000000   0.000000   0.000000   0.000000   0.000000
   69  C  6 YZ    0.000000  -0.003604   0.000000   0.000000  -0.011262
   70  N  7  S    0.535082   0.615495  -0.264668   0.027824  -0.056329
   71  N  7  S   -0.267500  -0.241758   0.021438   0.001633  -0.046592
   72  N  7  X    0.000000   0.000000   0.000000   0.000000   0.000000
   73  N  7  Y   -0.103350  -0.020622  -0.312371   0.340433  -0.293489
   74  N  7  Z    0.040745   0.037723   0.208782   0.299055   0.432935
   75  N  7  X    0.000000   0.000000   0.000000   0.000000   0.000000
   76  N  7  Y    0.053676   0.024913   0.061005  -0.059970   0.087195
   77  N  7  Z   -0.026625  -0.022989  -0.044667  -0.036294  -0.079716
   78  N  7 XX   -0.010892  -0.011031   0.002693   0.000335  -0.000077
   79  N  7 YY    0.011977   0.004972   0.007701  -0.002140   0.010020
   80  N  7 ZZ   -0.001085   0.006060  -0.010395   0.001805  -0.009943
   81  N  7 XY    0.000000   0.000000   0.000000   0.000000   0.000000
   82  N  7 XZ    0.000000   0.000000   0.000000   0.000000   0.000000
   83  N  7 YZ   -0.006611  -0.004365  -0.014612   0.008710  -0.013409
   84  N  7  S   -0.067459  -0.110710   0.053836   0.004241  -0.014004
   85  N  7  X    0.000000   0.000000   0.000000   0.000000   0.000000
   86  N  7  Y    0.008341   0.009441   0.008686  -0.024971   0.001457
   87  N  7  Z    0.002448  -0.016325  -0.008586  -0.029880  -0.037032
   88  N  7 XX    0.017441   0.016247   0.000050  -0.003193   0.007310
   89  N  7 YY   -0.009431  -0.014107  -0.005068  -0.005855  -0.024015
   90  N  7 ZZ   -0.008010  -0.002140   0.005019   0.009047   0.016705
   91  N  7 XY    0.000000   0.000000   0.000000   0.000000   0.000000
   92  N  7 XZ    0.000000   0.000000   0.000000   0.000000   0.000000
   93  N  7 YZ    0.015316   0.003959   0.006390  -0.011447   0.013911
   94  N  8  S    0.535082  -0.615495  -0.264668   0.027824   0.056329
   95  N  8  S   -0.267500   0.241758   0.021438   0.001633   0.046591
   96  N  8  X    0.000000   0.000000   0.000000   0.000000   0.000000
   97  N  8  Y    0.103350  -0.020622   0.312371  -0.340433  -0.293489
   98  N  8  Z    0.040745  -0.037723   0.208782   0.299055  -0.432935
   99  N  8  X    0.000000   0.000000   0.000000   0.000000   0.000000
  100  N  8  Y   -0.053676   0.024913  -0.061005   0.059970   0.087195
  101  N  8  Z   -0.026625   0.022989  -0.044667  -0.036294   0.079716
  102  N  8 XX   -0.010892   0.011031   0.002693   0.000335   0.000077
  103  N  8 YY    0.011977  -0.004972   0.007701  -0.002140  -0.010020
  104  N  8 ZZ   -0.001085  -0.006060  -0.010395   0.001805   0.009943
  105  N  8 XY    0.000000   0.000000   0.000000   0.000000   0.000000
  106  N  8 XZ    0.000000   0.000000   0.000000   0.000000   0.000000
  107  N  8 YZ    0.006611  -0.004365   0.014612  -0.008710  -0.013409
  108  N  8  S   -0.067459   0.110710   0.053836   0.004241   0.014004
  109  N  8  X    0.000000   0.000000   0.000000   0.000000   0.000000
  110  N  8  Y   -0.008341   0.009441  -0.008686   0.024971   0.001457
  111  N  8  Z    0.002448   0.016325  -0.008586  -0.029880   0.037032
  112  N  8 XX    0.017441  -0.016247   0.000050  -0.003193  -0.007310
  113  N  8 YY   -0.009431   0.014107  -0.005068  -0.005855   0.024015
  114  N  8 ZZ   -0.008010   0.002140   0.005019   0.009047  -0.016705
  115  N  8 XY    0.000000   0.000000   0.000000   0.000000   0.000000
  116  N  8 XZ    0.000000   0.000000   0.000000   0.000000   0.000000
  117  N  8 YZ   -0.015316   0.003959  -0.006390   0.011447   0.013911

                      6          7          8          9         10

                   -0.9561    -0.8761    -0.8265     1.5000     0.5000

    1  H  1  S    0.000000   0.426191   0.000000   0.000000   0.042593
    2  H  1  S    0.000000   0.077501   0.000000   0.000000   0.066026
    3  H  1  X    0.000000   0.000000  -0.012312   0.000000   0.000000
    4  H  1  Y    0.005280   0.000000   0.000000   0.000000   0.000000
    5  H  1  Z    0.000000   0.024902   0.000000   0.000000   0.009730
    6  H  1  S    0.000000   0.011984   0.000000   0.000000  -0.203514
    7  H  1  X    0.000000   0.000000  -0.008603   0.000000   0.000000
    8  H  1  Y    0.019205   0.000000   0.000000   0.000000   0.000000
    9  H  1  Z    0.000000  -0.030690   0.000000   0.000000  -0.021205
   10  H  2  S   -0.170868   0.242786   0.000000   0.000000  -0.012420
   11  H  2  S    0.024549  -0.022986   0.000000   0.000000  -0.073555
   12  H  2  X    0.000000   0.000000  -0.014448  -0.019886   0.000000
   13  H  2  Y   -0.011141   0.002086   0.000000   0.000000  -0.006146
   14  H  2  Z    0.013392  -0.015079   0.000000   0.000000  -0.022643
   15  H  2  S   -0.006666   0.001257   0.000000   0.000000  -0.258214
   16  H  2  X    0.000000   0.000000   0.000004  -0.002034   0.000000
   17  H  2  Y   -0.012480  -0.006738   0.000000   0.000000   0.045807
   18  H  2  Z   -0.000676   0.004265   0.000000   0.000000   0.071138
   19  H  3  S    0.170868   0.242786   0.000000   0.000000  -0.012420
   20  H  3  S   -0.024549  -0.022986   0.000000   0.000000  -0.073555
   21  H  3  X    0.000000   0.000000  -0.014448   0.019886   0.000000
   22  H  3  Y   -0.011141  -0.002086   0.000000   0.000000   0.006146
   23  H  3  Z   -0.013392  -0.015079   0.000000   0.000000  -0.022643
   24  H  3  S    0.006666   0.001257   0.000000   0.000000  -0.258214
   25  H  3  X    0.000000   0.000000   0.000004   0.002034   0.000000
   26  H  3  Y   -0.012480   0.006738   0.000000   0.000000  -0.045807
   27  H  3  Z    0.000676   0.004265   0.000000   0.000000   0.071138
   28  H  4  S    0.343911  -0.130134   0.000000   0.000000  -0.081640
   29  H  4  S   -0.029273   0.014156   0.000000   0.000000  -0.069698
   30  H  4  X    0.000000   0.000000  -0.015009  -0.020733   0.000000
   31  H  4  Y    0.022181  -0.012368   0.000000   0.000000   0.006750
   32  H  4  Z    0.013580   0.002603   0.000000   0.000000   0.011218
   33  H  4  S    0.006859   0.001174   0.000000   0.000000  -0.065599
   34  H  4  X    0.000000   0.000000  -0.002993   0.001893   0.000000
   35  H  4  Y   -0.010504  -0.003967   0.000000   0.000000  -0.039489
   36  H  4  Z    0.000477   0.003142   0.000000   0.000000  -0.021331
   37  H  5  S   -0.343911  -0.130134   0.000000   0.000000  -0.081640
   38  H  5  S    0.029273   0.014156   0.000000   0.000000  -0.069698
   39  H  5  X    0.000000   0.000000  -0.015009   0.020733   0.000000
   40  H  5  Y    0.022181   0.012368   0.000000   0.000000  -0.006750
   41  H  5  Z   -0.013580   0.002603   0.000000   0.000000   0.011218
   42  H  5  S   -0.006859   0.001174   0.000000   0.000000  -0.065599
   43  H  5  X    0.000000   0.000000  -0.002993  -0.001893   0.000000
   44  H  5  Y   -0.010504   0.003967   0.000000   0.000000   0.039489
   45  H  5  Z   -0.000477   0.003142   0.000000   0.000000  -0.021331
   46  C  6  S    0.000000   0.113430   0.000000   0.000000   0.069144
   47  C  6  S    0.000000  -0.139603   0.000000   0.000000  -0.251713
   48  C  6  X    0.000000   0.000000   0.509662   0.000000   0.000000
   49  C  6  Y   -0.275603   0.000000   0.000000   0.000000   0.000000
   50  C  6  Z    0.000000   0.564518   0.000000   0.000000   0.116466
   51  C  6  X    0.000000   0.000000  -0.097572   0.000000   0.000000
   52  C  6  Y    0.019800   0.000000   0.000000   0.000000   0.000000
   53  C  6  Z    0.000000  -0.147167   0.000000   0.000000   0.093566
   54  C  6 XX    0.000000   0.000704   0.000000   0.000000  -0.011313
   55  C  6 YY    0.000000  -0.046167   0.000000   0.000000   0.009376
   56  C  6 ZZ    0.000000   0.045463   0.000000   0.000000   0.001937
   57  C  6 XY    0.000000   0.000000   0.000000   0.058844   0.000000
   58  C  6 XZ    0.000000   0.000000  -0.025641   0.000000   0.000000
   59  C  6 YZ    0.040033   0.000000   0.000000   0.000000   0.000000
   60  C  6  S    0.000000  -0.079190   0.000000   0.000000  -0.010608
   61  C  6  X    0.000000   0.000000  -0.010050   0.000000   0.000000
   62  C  6  Y    0.011162   0.000000   0.000000   0.000000   0.000000
   63  C  6  Z    0.000000  -0.024920   0.000000   0.000000   0.111991
   64  C  6 XX    0.000000   0.013800   0.000000   0.000000   0.051695
   65  C  6 YY    0.000000  -0.001024   0.000000   0.000000  -0.043378
   66  C  6 ZZ    0.000000  -0.012776   0.000000   0.000000  -0.008316
   67  C  6 XY    0.000000   0.000000   0.000000   0.020926   0.000000
   68  C  6 XZ    0.000000   0.000000   0.010639   0.000000   0.000000
   69  C  6 YZ   -0.014120   0.000000   0.000000   0.000000   0.000000
   70  N  7  S   -0.036044  -0.072260   0.000000   0.000000   0.272347
   71  N  7  S    0.018326   0.030124   0.000000   0.000000   0.360795
   72  N  7  X    0.000000   0.000000   0.492173   0.643001   0.000000
   73  N  7  Y    0.454623   0.070809   0.000000   0.000000   0.058404
   74  N  7  Z    0.295075  -0.371461   0.000000   0.000000  -0.121953
   75  N  7  X    0.000000   0.000000   0.018089   0.043660   0.000000
   76  N  7  Y   -0.073736  -0.029503   0.000000   0.000000  -0.066006
   77  N  7  Z   -0.012246   0.041934   0.000000   0.000000   0.008329
   78  N  7 XX   -0.000313   0.000271   0.000000   0.000000  -0.005926
   79  N  7 YY    0.005436  -0.019063   0.000000   0.000000   0.002507
   80  N  7 ZZ   -0.005123   0.018792   0.000000   0.000000   0.003419
   81  N  7 XY    0.000000   0.000000  -0.016806  -0.005653   0.000000
   82  N  7 XZ    0.000000   0.000000   0.008956   0.004177   0.000000
   83  N  7 YZ    0.018263  -0.007882   0.000000   0.000000  -0.012258
   84  N  7  S    0.007589   0.037595   0.000000   0.000000  -0.176497
   85  N  7  X    0.000000   0.000000  -0.012536   0.005386   0.000000
   86  N  7  Y   -0.023891  -0.008894   0.000000   0.000000   0.068941
   87  N  7  Z   -0.024198   0.018606   0.000000   0.000000   0.010492
   88  N  7 XX   -0.005070  -0.006552   0.000000   0.000000  -0.005893
   89  N  7 YY    0.001711   0.002106   0.000000   0.000000   0.004057
   90  N  7 ZZ    0.003359   0.004445   0.000000   0.000000   0.001836
   91  N  7 XY    0.000000   0.000000  -0.018150  -0.004732   0.000000
   92  N  7 XZ    0.000000   0.000000   0.007464   0.001964   0.000000
   93  N  7 YZ   -0.015081  -0.006431   0.000000   0.000000  -0.019971
   94  N  8  S    0.036044  -0.072260   0.000000   0.000000   0.272347
   95  N  8  S   -0.018326   0.030124   0.000000   0.000000   0.360794
   96  N  8  X    0.000000   0.000000   0.492173  -0.643001   0.000000
   97  N  8  Y    0.454623  -0.070809   0.000000   0.000000  -0.058404
   98  N  8  Z   -0.295075  -0.371461   0.000000   0.000000  -0.121953
   99  N  8  X    0.000000   0.000000   0.018089  -0.043660   0.000000
  100  N  8  Y   -0.073736   0.029503   0.000000   0.000000   0.066006
  101  N  8  Z    0.012246   0.041934   0.000000   0.000000   0.008329
  102  N  8 XX    0.000313   0.000271   0.000000   0.000000  -0.005926
  103  N  8 YY   -0.005436  -0.019063   0.000000   0.000000   0.002507
  104  N  8 ZZ    0.005123   0.018792   0.000000   0.000000   0.003419
  105  N  8 XY    0.000000   0.000000   0.016806  -0.005653   0.000000
  106  N  8 XZ    0.000000   0.000000   0.008956  -0.004177   0.000000
  107  N  8 YZ    0.018263   0.007882   0.000000   0.000000   0.012258
  108  N  8  S   -0.007589   0.037595   0.000000   0.000000  -0.176498
  109  N  8  X    0.000000   0.000000  -0.012536  -0.005386   0.000000
  110  N  8  Y   -0.023891   0.008894   0.000000   0.000000  -0.068941
  111  N  8  Z    0.024198   0.018606   0.000000   0.000000   0.010492
  112  N  8 XX    0.005070  -0.006552   0.000000   0.000000  -0.005893
  113  N  8 YY   -0.001711   0.002106   0.000000   0.000000   0.004057
  114  N  8 ZZ   -0.003359   0.004445   0.000000   0.000000   0.001836
  115  N  8 XY    0.000000   0.000000   0.018150  -0.004732   0.000000
  116  N  8 XZ    0.000000   0.000000   0.007464  -0.001964   0.000000
  117  N  8 YZ   -0.015081   0.006431   0.000000   0.000000   0.019971

          ------------------------
          MCSCF OPTIMIZED ORBITALS
          ------------------------

                      1          2          3          4          5
                   -1.5973    -1.4896    -1.1713    -1.0664    -1.0357
                     A          A          A          A          A   
    1  H  1  S    0.073159   0.000000   0.220589   0.219224   0.000000
    2  H  1  S   -0.040915   0.000000   0.004935   0.070270   0.000000
    3  H  1  X    0.000000   0.000000   0.000000   0.000000   0.000000
    4  H  1  Y    0.000000  -0.004846   0.000000   0.000000  -0.007516
    5  H  1  Z    0.011335   0.000000   0.022155   0.018816   0.000000
    6  H  1  S    0.006186   0.000000   0.009387  -0.012840   0.000000
    7  H  1  X    0.000000   0.000000   0.000000   0.000000   0.000000
    8  H  1  Y    0.000000  -0.011058   0.000000   0.000000  -0.001727
    9  H  1  Z    0.009264   0.000000  -0.004582  -0.024524   0.000000
   10  H  2  S    0.113534   0.142662  -0.211671  -0.144726  -0.293762
   11  H  2  S    0.005287  -0.006846   0.039210   0.019405   0.036986
   12  H  2  X    0.000000   0.000000   0.000000   0.000000   0.000000
   13  H  2  Y    0.002752   0.003633   0.003019  -0.009313   0.003070
   14  H  2  Z   -0.018137  -0.020326   0.021467   0.012490   0.026388
   15  H  2  S    0.000808  -0.004760  -0.002022  -0.010369  -0.015273
   16  H  2  X    0.000000   0.000000   0.000000   0.000000   0.000000
   17  H  2  Y    0.006473   0.001558   0.007534  -0.005978   0.015055
   18  H  2  Z    0.004251   0.006975  -0.001197  -0.000130  -0.002494
   19  H  3  S    0.113534  -0.142662  -0.211671  -0.144726   0.293762
   20  H  3  S    0.005287   0.006846   0.039210   0.019405  -0.036986
   21  H  3  X    0.000000   0.000000   0.000000   0.000000   0.000000
   22  H  3  Y   -0.002752   0.003633  -0.003019   0.009313   0.003070
   23  H  3  Z   -0.018137   0.020326   0.021467   0.012490  -0.026388
   24  H  3  S    0.000808   0.004760  -0.002022  -0.010369   0.015273
   25  H  3  X    0.000000   0.000000   0.000000   0.000000   0.000000
   26  H  3  Y   -0.006473   0.001558  -0.007534   0.005978   0.015055
   27  H  3  Z    0.004251  -0.006975  -0.001197  -0.000130   0.002494
   28  H  4  S    0.105869   0.165097  -0.165790   0.274639  -0.029127
   29  H  4  S   -0.007902  -0.008306   0.031532  -0.033070  -0.003330
   30  H  4  X    0.000000   0.000000   0.000000   0.000000   0.000000
   31  H  4  Y    0.015954   0.020435  -0.009812   0.021491   0.004048
   32  H  4  Z    0.006594   0.012155  -0.014263   0.011717  -0.008731
   33  H  4  S   -0.001382  -0.003341  -0.001387   0.016730   0.006504
   34  H  4  X    0.000000   0.000000   0.000000   0.000000   0.000000
   35  H  4  Y    0.002040  -0.001857   0.004652  -0.005963   0.016199
   36  H  4  Z   -0.008186  -0.004799  -0.006516  -0.001594  -0.009891
   37  H  5  S    0.105869  -0.165097  -0.165790   0.274639   0.029127
   38  H  5  S   -0.007902   0.008306   0.031532  -0.033070   0.003330
   39  H  5  X    0.000000   0.000000   0.000000   0.000000   0.000000
   40  H  5  Y   -0.015954   0.020435   0.009812  -0.021491   0.004048
   41  H  5  Z    0.006594  -0.012155  -0.014263   0.011717   0.008731
   42  H  5  S   -0.001382   0.003341  -0.001387   0.016730  -0.006504
   43  H  5  X    0.000000   0.000000   0.000000   0.000000   0.000000
   44  H  5  Y   -0.002040  -0.001857  -0.004652   0.005963   0.016199
   45  H  5  Z   -0.008186   0.004799  -0.006516  -0.001594   0.009891
   46  C  6  S    0.533873   0.000000   0.617205   0.009930   0.000000
   47  C  6  S    0.047724   0.000000  -0.198793  -0.105754   0.000000
   48  C  6  X    0.000000   0.000000   0.000000   0.000000   0.000000
   49  C  6  Y    0.000000   0.334190   0.000000   0.000000   0.508301
   50  C  6  Z   -0.141711   0.000000   0.073304   0.414282   0.000000
   51  C  6  X    0.000000   0.000000   0.000000   0.000000   0.000000
   52  C  6  Y    0.000000  -0.023840   0.000000   0.000000  -0.090155
   53  C  6  Z    0.011679   0.000000  -0.037896  -0.180885   0.000000
   54  C  6 XX   -0.021174   0.000000  -0.013558   0.000507   0.000000
   55  C  6 YY    0.027093   0.000000   0.006326   0.006226   0.000000
   56  C  6 ZZ   -0.005919   0.000000   0.007233  -0.006733   0.000000
   57  C  6 XY    0.000000   0.000000   0.000000   0.000000   0.000000
   58  C  6 XZ    0.000000   0.000000   0.000000   0.000000   0.000000
   59  C  6 YZ    0.000000  -0.032732   0.000000   0.000000  -0.022090
   60  C  6  S    0.032454   0.000000  -0.061713  -0.015921   0.000000
   61  C  6  X    0.000000   0.000000   0.000000   0.000000   0.000000
   62  C  6  Y    0.000000   0.026596   0.000000   0.000000   0.008950
   63  C  6  Z   -0.012229   0.000000  -0.001528   0.002564   0.000000
   64  C  6 XX   -0.021561   0.000000   0.005476   0.011560   0.000000
   65  C  6 YY    0.027969   0.000000   0.007720   0.003100   0.000000
   66  C  6 ZZ   -0.006408   0.000000  -0.013196  -0.014660   0.000000
   67  C  6 XY    0.000000   0.000000   0.000000   0.000000   0.000000
   68  C  6 XZ    0.000000   0.000000   0.000000   0.000000   0.000000
   69  C  6 YZ    0.000000  -0.003604   0.000000   0.000000  -0.011262
   70  N  7  S    0.535082   0.615495  -0.264668   0.027824  -0.056329
   71  N  7  S   -0.267500  -0.241758   0.021438   0.001633  -0.046592
   72  N  7  X    0.000000   0.000000   0.000000   0.000000   0.000000
   73  N  7  Y   -0.103350  -0.020622  -0.312371   0.340433  -0.293489
   74  N  7  Z    0.040745   0.037723   0.208782   0.299055   0.432935
   75  N  7  X    0.000000   0.000000   0.000000   0.000000   0.000000
   76  N  7  Y    0.053676   0.024913   0.061005  -0.059970   0.087195
   77  N  7  Z   -0.026625  -0.022989  -0.044667  -0.036294  -0.079716
   78  N  7 XX   -0.010892  -0.011031   0.002693   0.000335  -0.000077
   79  N  7 YY    0.011977   0.004972   0.007701  -0.002140   0.010020
   80  N  7 ZZ   -0.001085   0.006060  -0.010395   0.001805  -0.009943
   81  N  7 XY    0.000000   0.000000   0.000000   0.000000   0.000000
   82  N  7 XZ    0.000000   0.000000   0.000000   0.000000   0.000000
   83  N  7 YZ   -0.006611  -0.004365  -0.014612   0.008710  -0.013409
   84  N  7  S   -0.067459  -0.110710   0.053836   0.004241  -0.014004
   85  N  7  X    0.000000   0.000000   0.000000   0.000000   0.000000
   86  N  7  Y    0.008341   0.009441   0.008686  -0.024971   0.001457
   87  N  7  Z    0.002448  -0.016325  -0.008586  -0.029880  -0.037032
   88  N  7 XX    0.017441   0.016247   0.000050  -0.003193   0.007310
   89  N  7 YY   -0.009431  -0.014107  -0.005068  -0.005855  -0.024015
   90  N  7 ZZ   -0.008010  -0.002140   0.005019   0.009047   0.016705
   91  N  7 XY    0.000000   0.000000   0.000000   0.000000   0.000000
   92  N  7 XZ    0.000000   0.000000   0.000000   0.000000   0.000000
   93  N  7 YZ    0.015316   0.003959   0.006390  -0.011447   0.013911
   94  N  8  S    0.535082  -0.615495  -0.264668   0.027824   0.056329
   95  N  8  S   -0.267500   0.241758   0.021438   0.001633   0.046591
   96  N  8  X    0.000000   0.000000   0.000000   0.000000   0.000000
   97  N  8  Y    0.103350  -0.020622   0.312371  -0.340433  -0.293489
   98  N  8  Z    0.040745  -0.037723   0.208782   0.299055  -0.432935
   99  N  8  X    0.000000   0.000000   0.000000   0.000000   0.000000
  100  N  8  Y   -0.053676   0.024913  -0.061005   0.059970   0.087195
  101  N  8  Z   -0.026625   0.022989  -0.044667  -0.036294   0.079716
  102  N  8 XX   -0.010892   0.011031   0.002693   0.000335   0.000077
  103  N  8 YY    0.011977  -0.004972   0.007701  -0.002140  -0.010020
  104  N  8 ZZ   -0.001085  -0.006060  -0.010395   0.001805   0.009943
  105  N  8 XY    0.000000   0.000000   0.000000   0.000000   0.000000
  106  N  8 XZ    0.000000   0.000000   0.000000   0.000000   0.000000
  107  N  8 YZ    0.006611  -0.004365   0.014612  -0.008710  -0.013409
  108  N  8  S   -0.067459   0.110710   0.053836   0.004241   0.014004
  109  N  8  X    0.000000   0.000000   0.000000   0.000000   0.000000
  110  N  8  Y   -0.008341   0.009441  -0.008686   0.024971   0.001457
  111  N  8  Z    0.002448   0.016325  -0.008586  -0.029880   0.037032
  112  N  8 XX    0.017441  -0.016247   0.000050  -0.003193  -0.007310
  113  N  8 YY   -0.009431   0.014107  -0.005068  -0.005855   0.024015
  114  N  8 ZZ   -0.008010   0.002140   0.005019   0.009047  -0.016705
  115  N  8 XY    0.000000   0.000000   0.000000   0.000000   0.000000
  116  N  8 XZ    0.000000   0.000000   0.000000   0.000000   0.000000
  117  N  8 YZ   -0.015316   0.003959  -0.006390   0.011447   0.013911

                      6          7          8          9         10
                   -0.9561    -0.8761    -0.8265    -0.6094    -0.1401
                     A          A          A          A          A   
    1  H  1  S    0.000000   0.426191   0.000000   0.000000   0.042593
    2  H  1  S    0.000000   0.077501   0.000000   0.000000   0.066026
    3  H  1  X    0.000000   0.000000  -0.012312   0.000000   0.000000
    4  H  1  Y    0.005280   0.000000   0.000000   0.000000   0.000000
    5  H  1  Z    0.000000   0.024902   0.000000   0.000000   0.009730
    6  H  1  S    0.000000   0.011984   0.000000   0.000000  -0.203514
    7  H  1  X    0.000000   0.000000  -0.008603   0.000000   0.000000
    8  H  1  Y    0.019205   0.000000   0.000000   0.000000   0.000000
    9  H  1  Z    0.000000  -0.030690   0.000000   0.000000  -0.021205
   10  H  2  S   -0.170868   0.242786   0.000000   0.000000  -0.012420
   11  H  2  S    0.024549  -0.022986   0.000000   0.000000  -0.073555
   12  H  2  X    0.000000   0.000000  -0.014448   0.019886   0.000000
   13  H  2  Y   -0.011141   0.002086   0.000000   0.000000  -0.006146
   14  H  2  Z    0.013392  -0.015079   0.000000   0.000000  -0.022643
   15  H  2  S   -0.006666   0.001257   0.000000   0.000000  -0.258214
   16  H  2  X    0.000000   0.000000   0.000004   0.002034   0.000000
   17  H  2  Y   -0.012480  -0.006738   0.000000   0.000000   0.045807
   18  H  2  Z   -0.000676   0.004265   0.000000   0.000000   0.071138
   19  H  3  S    0.170868   0.242786   0.000000   0.000000  -0.012420
   20  H  3  S   -0.024549  -0.022986   0.000000   0.000000  -0.073555
   21  H  3  X    0.000000   0.000000  -0.014448  -0.019886   0.000000
   22  H  3  Y   -0.011141  -0.002086   0.000000   0.000000   0.006146
   23  H  3  Z   -0.013392  -0.015079   0.000000   0.000000  -0.022643
   24  H  3  S    0.006666   0.001257   0.000000   0.000000  -0.258214
   25  H  3  X    0.000000   0.000000   0.000004  -0.002034   0.000000
   26  H  3  Y   -0.012480   0.006738   0.000000   0.000000  -0.045807
   27  H  3  Z    0.000676   0.004265   0.000000   0.000000   0.071138
   28  H  4  S    0.343911  -0.130134   0.000000   0.000000  -0.081640
   29  H  4  S   -0.029273   0.014156   0.000000   0.000000  -0.069698
   30  H  4  X    0.000000   0.000000  -0.015009   0.020733   0.000000
   31  H  4  Y    0.022181  -0.012368   0.000000   0.000000   0.006750
   32  H  4  Z    0.013580   0.002603   0.000000   0.000000   0.011218
   33  H  4  S    0.006859   0.001174   0.000000   0.000000  -0.065599
   34  H  4  X    0.000000   0.000000  -0.002993  -0.001893   0.000000
   35  H  4  Y   -0.010504  -0.003967   0.000000   0.000000  -0.039489
   36  H  4  Z    0.000477   0.003142   0.000000   0.000000  -0.021331
   37  H  5  S   -0.343911  -0.130134   0.000000   0.000000  -0.081640
   38  H  5  S    0.029273   0.014156   0.000000   0.000000  -0.069698
   39  H  5  X    0.000000   0.000000  -0.015009  -0.020733   0.000000
   40  H  5  Y    0.022181   0.012368   0.000000   0.000000  -0.006750
   41  H  5  Z   -0.013580   0.002603   0.000000   0.000000   0.011218
   42  H  5  S   -0.006859   0.001174   0.000000   0.000000  -0.065599
   43  H  5  X    0.000000   0.000000  -0.002993   0.001893   0.000000
   44  H  5  Y   -0.010504   0.003967   0.000000   0.000000   0.039489
   45  H  5  Z   -0.000477   0.003142   0.000000   0.000000  -0.021331
   46  C  6  S    0.000000   0.113430   0.000000   0.000000   0.069144
   47  C  6  S    0.000000  -0.139603   0.000000   0.000000  -0.251713
   48  C  6  X    0.000000   0.000000   0.509662   0.000000   0.000000
   49  C  6  Y   -0.275603   0.000000   0.000000   0.000000   0.000000
   50  C  6  Z    0.000000   0.564518   0.000000   0.000000   0.116466
   51  C  6  X    0.000000   0.000000  -0.097572   0.000000   0.000000
   52  C  6  Y    0.019800   0.000000   0.000000   0.000000   0.000000
   53  C  6  Z    0.000000  -0.147167   0.000000   0.000000   0.093566
   54  C  6 XX    0.000000   0.000704   0.000000   0.000000  -0.011313
   55  C  6 YY    0.000000  -0.046167   0.000000   0.000000   0.009376
   56  C  6 ZZ    0.000000   0.045463   0.000000   0.000000   0.001937
   57  C  6 XY    0.000000   0.000000   0.000000  -0.058844   0.000000
   58  C  6 XZ    0.000000   0.000000  -0.025641   0.000000   0.000000
   59  C  6 YZ    0.040033   0.000000   0.000000   0.000000   0.000000
   60  C  6  S    0.000000  -0.079190   0.000000   0.000000  -0.010608
   61  C  6  X    0.000000   0.000000  -0.010050   0.000000   0.000000
   62  C  6  Y    0.011162   0.000000   0.000000   0.000000   0.000000
   63  C  6  Z    0.000000  -0.024920   0.000000   0.000000   0.111991
   64  C  6 XX    0.000000   0.013800   0.000000   0.000000   0.051695
   65  C  6 YY    0.000000  -0.001024   0.000000   0.000000  -0.043378
   66  C  6 ZZ    0.000000  -0.012776   0.000000   0.000000  -0.008316
   67  C  6 XY    0.000000   0.000000   0.000000  -0.020926   0.000000
   68  C  6 XZ    0.000000   0.000000   0.010639   0.000000   0.000000
   69  C  6 YZ   -0.014120   0.000000   0.000000   0.000000   0.000000
   70  N  7  S   -0.036044  -0.072260   0.000000   0.000000   0.272347
   71  N  7  S    0.018326   0.030124   0.000000   0.000000   0.360795
   72  N  7  X    0.000000   0.000000   0.492173  -0.643001   0.000000
   73  N  7  Y    0.454623   0.070809   0.000000   0.000000   0.058404
   74  N  7  Z    0.295075  -0.371461   0.000000   0.000000  -0.121953
   75  N  7  X    0.000000   0.000000   0.018089  -0.043660   0.000000
   76  N  7  Y   -0.073736  -0.029503   0.000000   0.000000  -0.066006
   77  N  7  Z   -0.012246   0.041934   0.000000   0.000000   0.008329
   78  N  7 XX   -0.000313   0.000271   0.000000   0.000000  -0.005926
   79  N  7 YY    0.005436  -0.019063   0.000000   0.000000   0.002507
   80  N  7 ZZ   -0.005123   0.018792   0.000000   0.000000   0.003419
   81  N  7 XY    0.000000   0.000000  -0.016806   0.005653   0.000000
   82  N  7 XZ    0.000000   0.000000   0.008956  -0.004177   0.000000
   83  N  7 YZ    0.018263  -0.007882   0.000000   0.000000  -0.012258
   84  N  7  S    0.007589   0.037595   0.000000   0.000000  -0.176497
   85  N  7  X    0.000000   0.000000  -0.012536  -0.005386   0.000000
   86  N  7  Y   -0.023891  -0.008894   0.000000   0.000000   0.068941
   87  N  7  Z   -0.024198   0.018606   0.000000   0.000000   0.010492
   88  N  7 XX   -0.005070  -0.006552   0.000000   0.000000  -0.005893
   89  N  7 YY    0.001711   0.002106   0.000000   0.000000   0.004057
   90  N  7 ZZ    0.003359   0.004445   0.000000   0.000000   0.001836
   91  N  7 XY    0.000000   0.000000  -0.018150   0.004732   0.000000
   92  N  7 XZ    0.000000   0.000000   0.007464  -0.001964   0.000000
   93  N  7 YZ   -0.015081  -0.006431   0.000000   0.000000  -0.019971
   94  N  8  S    0.036044  -0.072260   0.000000   0.000000   0.272347
   95  N  8  S   -0.018326   0.030124   0.000000   0.000000   0.360794
   96  N  8  X    0.000000   0.000000   0.492173   0.643001   0.000000
   97  N  8  Y    0.454623  -0.070809   0.000000   0.000000  -0.058404
   98  N  8  Z   -0.295075  -0.371461   0.000000   0.000000  -0.121953
   99  N  8  X    0.000000   0.000000   0.018089   0.043660   0.000000
  100  N  8  Y   -0.073736   0.029503   0.000000   0.000000   0.066006
  101  N  8  Z    0.012246   0.041934   0.000000   0.000000   0.008329
  102  N  8 XX    0.000313   0.000271   0.000000   0.000000  -0.005926
  103  N  8 YY   -0.005436  -0.019063   0.000000   0.000000   0.002507
  104  N  8 ZZ    0.005123   0.018792   0.000000   0.000000   0.003419
  105  N  8 XY    0.000000   0.000000   0.016806   0.005653   0.000000
  106  N  8 XZ    0.000000   0.000000   0.008956   0.004177   0.000000
  107  N  8 YZ    0.018263   0.007882   0.000000   0.000000   0.012258
  108  N  8  S   -0.007589   0.037595   0.000000   0.000000  -0.176498
  109  N  8  X    0.000000   0.000000  -0.012536   0.005386   0.000000
  110  N  8  Y   -0.023891   0.008894   0.000000   0.000000  -0.068941
  111  N  8  Z    0.024198   0.018606   0.000000   0.000000   0.010492
  112  N  8 XX    0.005070  -0.006552   0.000000   0.000000  -0.005893
  113  N  8 YY   -0.001711   0.002106   0.000000   0.000000   0.004057
  114  N  8 ZZ   -0.003359   0.004445   0.000000   0.000000   0.001836
  115  N  8 XY    0.000000   0.000000   0.018150   0.004732   0.000000
  116  N  8 XZ    0.000000   0.000000   0.007464   0.001964   0.000000
  117  N  8 YZ   -0.015081   0.006431   0.000000   0.000000   0.019971

[...]
   68  C  6 XZ    0.000000   0.000000   0.000000   0.000000   0.000000
   69  C  6 YZ    0.000000   0.756194   0.000000   0.000000  -0.455246
   70  N  7  S    0.055476  -0.074499   0.502608   1.584426  -0.458336
   71  N  7  S    5.329001   8.216434  -5.044644  -4.308902   2.437421
   72  N  7  X    0.000000   0.000000   0.000000   0.000000   0.000000
   73  N  7  Y    0.387045   0.510334   0.049046  -0.071485   0.044445
   74  N  7  Z   -0.203042   0.007827   0.375862   0.185470  -0.585502
   75  N  7  X    0.000000   0.000000   0.000000   0.000000   0.000000
   76  N  7  Y   -0.601091   1.488735   0.668757   4.919505  -0.572091
   77  N  7  Z    0.666297   0.312016   1.901970  -1.523589  -2.680452
   78  N  7 XX   -0.439955  -0.396801   0.159883  -0.204529  -0.121427
   79  N  7 YY    0.202699   0.095470   0.337191  -0.040961  -0.641366
   80  N  7 ZZ    0.237256   0.301331  -0.497073   0.245490   0.762793
   81  N  7 XY    0.000000   0.000000   0.000000   0.000000   0.000000
   82  N  7 XZ    0.000000   0.000000   0.000000   0.000000   0.000000
   83  N  7 YZ   -0.111721   0.525768   0.049790   0.539853  -0.345963
   84  N  7  S    1.134857   2.093124  -1.963425  -0.130532   0.661856
   85  N  7  X    0.000000   0.000000   0.000000   0.000000   0.000000
   86  N  7  Y   -0.126078   0.121983   0.342833   0.423240  -0.292623
   87  N  7  Z    0.322637   0.336452   0.881973   0.401747  -0.542576
   88  N  7 XX   -0.065444  -0.305072   0.557790   0.320824  -0.234496
   89  N  7 YY    0.446640   0.041299  -0.313186  -0.889649  -0.397916
   90  N  7 ZZ   -0.381196   0.263773  -0.244604   0.568826   0.632413
   91  N  7 XY    0.000000   0.000000   0.000000   0.000000   0.000000
   92  N  7 XZ    0.000000   0.000000   0.000000   0.000000   0.000000
   93  N  7 YZ   -1.254012   0.297984  -0.961824   1.069513  -0.226915
   94  N  8  S    0.055476   0.074499   0.502608   1.584426   0.458336
   95  N  8  S    5.329001  -8.216434  -5.044644  -4.308902  -2.437420
   96  N  8  X    0.000000   0.000000   0.000000   0.000000   0.000000
   97  N  8  Y   -0.387045   0.510334  -0.049046   0.071485   0.044445
   98  N  8  Z   -0.203042  -0.007827   0.375862   0.185470   0.585502
   99  N  8  X    0.000000   0.000000   0.000000   0.000000   0.000000
  100  N  8  Y    0.601091   1.488735  -0.668757  -4.919505  -0.572091
  101  N  8  Z    0.666297  -0.312016   1.901971  -1.523589   2.680452
  102  N  8 XX   -0.439955   0.396801   0.159883  -0.204529   0.121427
  103  N  8 YY    0.202699  -0.095470   0.337191  -0.040961   0.641366
  104  N  8 ZZ    0.237256  -0.301331  -0.497073   0.245490  -0.762793
  105  N  8 XY    0.000000   0.000000   0.000000   0.000000   0.000000
  106  N  8 XZ    0.000000   0.000000   0.000000   0.000000   0.000000
  107  N  8 YZ    0.111721   0.525768  -0.049790  -0.539853  -0.345963
  108  N  8  S    1.134857  -2.093124  -1.963425  -0.130532  -0.661856
  109  N  8  X    0.000000   0.000000   0.000000   0.000000   0.000000
  110  N  8  Y    0.126078   0.121983  -0.342833  -0.423240  -0.292623
  111  N  8  Z    0.322637  -0.336452   0.881973   0.401747   0.542576
  112  N  8 XX   -0.065444   0.305072   0.557790   0.320824   0.234496
  113  N  8 YY    0.446640  -0.041299  -0.313186  -0.889649   0.397916
  114  N  8 ZZ   -0.381196  -0.263773  -0.244604   0.568826  -0.632413
  115  N  8 XY    0.000000   0.000000   0.000000   0.000000   0.000000
  116  N  8 XZ    0.000000   0.000000   0.000000   0.000000   0.000000
  117  N  8 YZ    1.254012   0.297984   0.961824  -1.069513  -0.226915

                    111
                    4.3288
                     A   
    1  H  1  S   -1.100594
    2  H  1  S   -7.754228
    3  H  1  X    0.000000
    4  H  1  Y    0.000000
    5  H  1  Z   -1.423488
    6  H  1  S    0.171468
    7  H  1  X    0.000000
    8  H  1  Y    0.000000
    9  H  1  Z    1.062562
   10  H  2  S   -1.016688
   11  H  2  S   -1.850316
   12  H  2  X    0.000000
   13  H  2  Y    0.266128
   14  H  2  Z    0.801681
   15  H  2  S   -0.295285
   16  H  2  X    0.000000
   17  H  2  Y    0.383092
   18  H  2  Z   -0.332512
   19  H  3  S   -1.016688
   20  H  3  S   -1.850316
   21  H  3  X    0.000000
   22  H  3  Y   -0.266128
   23  H  3  Z    0.801681
   24  H  3  S   -0.295285
   25  H  3  X    0.000000
   26  H  3  Y   -0.383092
   27  H  3  Z   -0.332512
   28  H  4  S    1.380733
   29  H  4  S    2.687667
   30  H  4  X    0.000000
   31  H  4  Y    0.660936
   32  H  4  Z    0.735729
   33  H  4  S    0.324381
   34  H  4  X    0.000000
   35  H  4  Y   -0.475024
   36  H  4  Z   -0.193949
   37  H  5  S    1.380733
   38  H  5  S    2.687667
   39  H  5  X    0.000000
   40  H  5  Y   -0.660936
   41  H  5  Z    0.735729
   42  H  5  S    0.324381
   43  H  5  X    0.000000
   44  H  5  Y    0.475024
   45  H  5  Z   -0.193949
   46  C  6  S    0.719577
   47  C  6  S    8.995438
   48  C  6  X    0.000000
   49  C  6  Y    0.000000
   50  C  6  Z    0.485173
   51  C  6  X    0.000000
   52  C  6  Y    0.000000
   53  C  6  Z    2.091921
   54  C  6 XX   -0.203829
   55  C  6 YY   -1.060108
   56  C  6 ZZ    1.263937
   57  C  6 XY    0.000000
   58  C  6 XZ    0.000000
   59  C  6 YZ    0.000000
   60  C  6  S    0.414523
   61  C  6  X    0.000000
   62  C  6  Y    0.000000
   63  C  6  Z   -0.596307
   64  C  6 XX   -0.982399
   65  C  6 YY   -1.593957
   66  C  6 ZZ    2.576356
   67  C  6 XY    0.000000
   68  C  6 XZ    0.000000
   69  C  6 YZ    0.000000
   70  N  7  S    0.793572
   71  N  7  S   -2.319795
   72  N  7  X    0.000000
   73  N  7  Y   -0.454266
   74  N  7  Z   -0.193913
   75  N  7  X    0.000000
   76  N  7  Y   -0.188051
   77  N  7  Z   -1.409505
   78  N  7 XX    0.034148
   79  N  7 YY   -0.577277
   80  N  7 ZZ    0.543129
   81  N  7 XY    0.000000
   82  N  7 XZ    0.000000
   83  N  7 YZ   -0.688006
   84  N  7  S   -0.878231
   85  N  7  X    0.000000
   86  N  7  Y   -0.038028
   87  N  7  Z   -0.126326
   88  N  7 XX    0.296942
   89  N  7 YY   -0.954244
   90  N  7 ZZ    0.657302
   91  N  7 XY    0.000000
   92  N  7 XZ    0.000000
   93  N  7 YZ   -0.703023
   94  N  8  S    0.793572
   95  N  8  S   -2.319795
   96  N  8  X    0.000000
   97  N  8  Y    0.454266
   98  N  8  Z   -0.193913
   99  N  8  X    0.000000
  100  N  8  Y    0.188051
  101  N  8  Z   -1.409505
  102  N  8 XX    0.034148
  103  N  8 YY   -0.577277
  104  N  8 ZZ    0.543129
  105  N  8 XY    0.000000
  106  N  8 XZ    0.000000
  107  N  8 YZ    0.688006
  108  N  8  S   -0.878231
  109  N  8  X    0.000000
  110  N  8  Y    0.038028
  111  N  8  Z   -0.126326
  112  N  8 XX    0.296942
  113  N  8 YY   -0.954244
  114  N  8 ZZ    0.657302
  115  N  8 XY    0.000000
  116  N  8 XZ    0.000000
  117  N  8 YZ    0.703023
 .....DONE WITH MCSCF ITERATIONS.....
 STEP CPU TIME =     7.37 TOTAL CPU TIME =       14.2 (    0.2 MIN)
 TOTAL WALL CLOCK TIME=       14.0 SECONDS, CPU UTILIZATION IS 101.50%

     ----------------------------------------------------------------
     PROPERTY VALUES FOR THE MCSCF SELF-CONSISTENT FIELD WAVEFUNCTION
     ----------------------------------------------------------------

          -----------------
          ENERGY COMPONENTS
          -----------------

         WAVEFUNCTION NORMALIZATION =       1.0000000000

                ONE ELECTRON ENERGY =    -129.6800928451
                TWO ELECTRON ENERGY =      55.2368404844
           NUCLEAR REPULSION ENERGY =      46.9132012474
                                      ------------------
                       TOTAL ENERGY =     -27.5300511133

 ELECTRON-ELECTRON POTENTIAL ENERGY =      55.2368404844
  NUCLEUS-ELECTRON POTENTIAL ENERGY =    -151.0799615641
   NUCLEUS-NUCLEUS POTENTIAL ENERGY =      46.9132012474
                                      ------------------
             TOTAL POTENTIAL ENERGY =     -48.9299198323
               TOTAL KINETIC ENERGY =      21.3998687190
                 VIRIAL RATIO (V/T) =       2.2864588786

          ---------------------------------------
          MULLIKEN AND LOWDIN POPULATION ANALYSES
          ---------------------------------------

     MULLIKEN ATOMIC POPULATION IN EACH MOLECULAR ORBITAL

                      1          2          3          4          5

                  2.000000   2.000000   2.000000   2.000000   2.000000

    1             0.013703  -0.006196   0.207293   0.222530   0.002104
    2             0.098366   0.112626   0.128665   0.051931   0.214372
    3             0.098366   0.112626   0.128665   0.051931   0.214372
    4             0.075092   0.143728   0.074390   0.203242  -0.001101
    5             0.075092   0.143728   0.074390   0.203242  -0.001101
    6             1.073485   0.507477   0.485695   0.293823   0.429216
    7             0.282948   0.493006   0.450450   0.486651   0.571070
    8             0.282948   0.493006   0.450450   0.486651   0.571070

                      6          7          8          9         10

                  2.000000   2.000000   2.000000   1.499978   0.500022

    1             0.005288   0.589824  -0.000302   0.000000   0.053788
    2             0.058730   0.139540   0.007814   0.007799   0.127241
    3             0.058730   0.139540   0.007814   0.007799   0.127241
    4             0.282180   0.030962   0.005782   0.010930   0.038090
    5             0.282180   0.030962   0.005782   0.010930   0.038090
    6             0.098791   0.488132   0.629248   0.061060   0.051998
    7             0.607050   0.290520   0.671931   0.700730   0.031787
    8             0.607050   0.290520   0.671931   0.700730   0.031787
 WARNING! MCSCF POPULATIONS SHOWN ABOVE ARE FOR THE NATURAL ORBITALS.
 IGNORE THE ABOVE DATA FOR MCSCF FUNCTIONS WHICH ARE NOT OF -FORS- TYPE.
 THE FOLLOWING POPULATIONS ARE CORRECT FOR ANY MCSCF WAVEFUNCTION.

               ----- POPULATIONS IN EACH AO -----
                             MULLIKEN      LOWDIN
              1  H  1  S      0.91065     0.47782
              2  H  1  S      0.09527     0.16393
              3  H  1  X      0.00643     0.01490
              4  H  1  Y      0.00435     0.01256
              5  H  1  Z      0.02804     0.05402
              6  H  1  S      0.06469     0.04742
              7  H  1  X     -0.00673     0.02026
              8  H  1  Y     -0.00316     0.01974
              9  H  1  Z     -0.01152     0.04879
             10  H  2  S      0.83653     0.38565
             11  H  2  S     -0.05937     0.12410
             12  H  2  X      0.01658     0.03666
             13  H  2  Y      0.01002     0.02697
             14  H  2  Z      0.04088     0.07930
             15  H  2  S      0.09857     0.07661
             16  H  2  X     -0.00096     0.03489
             17  H  2  Y     -0.01212     0.02706
             18  H  2  Z      0.01697     0.07637
             19  H  3  S      0.83653     0.38565
             20  H  3  S     -0.05937     0.12410
             21  H  3  X      0.01658     0.03666
             22  H  3  Y      0.01002     0.02697
             23  H  3  Z      0.04088     0.07930
             24  H  3  S      0.09857     0.07661
             25  H  3  X     -0.00096     0.03489
             26  H  3  Y     -0.01212     0.02706
             27  H  3  Z      0.01697     0.07637
             28  H  4  S      0.84671     0.38809
             29  H  4  S     -0.06161     0.12345
             30  H  4  X      0.01773     0.03790
             31  H  4  Y      0.03059     0.05563
             32  H  4  Z      0.01727     0.04073
             33  H  4  S      0.02327     0.04629
             34  H  4  X     -0.00102     0.03644
             35  H  4  Y     -0.00463     0.05271
             36  H  4  Z     -0.00502     0.03889
             37  H  5  S      0.84671     0.38809
             38  H  5  S     -0.06161     0.12345
             39  H  5  X      0.01773     0.03790
             40  H  5  Y      0.03059     0.05563
             41  H  5  Z      0.01727     0.04073
             42  H  5  S      0.02327     0.04629
             43  H  5  X     -0.00102     0.03644
             44  H  5  Y     -0.00463     0.05271
             45  H  5  Z     -0.00502     0.03889
             46  C  6  S      1.48529     0.29960
             47  C  6  S     -0.11234     0.10518
             48  C  6  X      0.77614     0.44453
             49  C  6  Y      1.04821     0.63037
             50  C  6  Z      1.27422     0.79845
             51  C  6  X     -0.14296     0.10921
             52  C  6  Y     -0.06667     0.13855
             53  C  6  Z     -0.33827     0.16251
             54  C  6 XX      0.03396     0.03724
             55  C  6 YY      0.02551     0.18658
             56  C  6 ZZ      0.03978     0.15949
             57  C  6 XY      0.00880     0.06942
             58  C  6 XZ      0.04182     0.01210
             59  C  6 YZ      0.00000     0.08259
             60  C  6  S     -0.00528     0.05905
             61  C  6  X     -0.00769     0.00959
             62  C  6  Y      0.02659     0.02160
             63  C  6  Z      0.02099     0.02428
             64  C  6 XX     -0.00444     0.00963
             65  C  6 YY      0.01348     0.12479
             66  C  6 ZZ      0.02128     0.08475
             67  C  6 XY     -0.00505     0.10037
             68  C  6 XZ     -0.01446     0.01375
             69  C  6 YZ      0.00000     0.11257
             70  N  7  S      1.67443     0.43835
             71  N  7  S     -0.67047     0.15124
             72  N  7  X      1.30494     0.89372
             73  N  7  Y      1.33488     0.91053
             74  N  7  Z      1.39714     0.96309
             75  N  7  X      0.06002     0.25501
             76  N  7  Y     -0.23763     0.26646
             77  N  7  Z     -0.17799     0.28896
             78  N  7 XX      0.00915     0.08348
             79  N  7 YY      0.00606     0.15989
             80  N  7 ZZ      0.00385     0.14946
             81  N  7 XY      0.00102     0.00508
             82  N  7 XZ      0.01298     0.00136
             83  N  7 YZ      0.00000     0.02705
             84  N  7  S     -0.08533     0.06041
             85  N  7  X     -0.00901     0.01683
             86  N  7  Y     -0.00919     0.03095
             87  N  7  Z     -0.04019     0.02900
             88  N  7 XX      0.00335     0.00357
             89  N  7 YY     -0.00132     0.06252
             90  N  7 ZZ      0.01017     0.06193
             91  N  7 XY      0.00168     0.02874
             92  N  7 XZ     -0.00240     0.00629
             93  N  7 YZ      0.00000     0.09052
             94  N  8  S      1.67443     0.43835
             95  N  8  S     -0.67047     0.15124
             96  N  8  X      1.30494     0.89372
             97  N  8  Y      1.33488     0.91053
             98  N  8  Z      1.39714     0.96309
             99  N  8  X      0.06002     0.25501
            100  N  8  Y     -0.23763     0.26646
            101  N  8  Z     -0.17799     0.28896
            102  N  8 XX      0.00915     0.08348
            103  N  8 YY      0.00606     0.15989
            104  N  8 ZZ      0.00385     0.14946
            105  N  8 XY      0.00102     0.00508
            106  N  8 XZ      0.01298     0.00136
            107  N  8 YZ      0.00000     0.02705
            108  N  8  S     -0.08533     0.06041
            109  N  8  X     -0.00901     0.01683
            110  N  8  Y     -0.00919     0.03095
            111  N  8  Z     -0.04019     0.02900
            112  N  8 XX      0.00335     0.00357
            113  N  8 YY     -0.00132     0.06252
            114  N  8 ZZ      0.01017     0.06193
            115  N  8 XY      0.00168     0.02874
            116  N  8 XZ     -0.00240     0.00629
            117  N  8 YZ      0.00000     0.09052

          ----- MULLIKEN ATOMIC OVERLAP POPULATIONS -----
          (OFF-DIAGONAL ELEMENTS NEED TO BE MULTIPLIED BY 2)

             1           2           3           4           5

    1    0.7964725
    2    0.0176616   0.5143242
    3    0.0176616   0.0342253   0.5143242
    4    0.0083332  -0.0080137   0.0062415   0.4973364
    5    0.0083332   0.0062415  -0.0080137   0.0022976   0.4973363
    6    0.2716759   0.0215873   0.0215872  -0.0003405  -0.0003405
    7   -0.0160527   0.3690022  -0.0079437   0.3537716   0.0036670
    8   -0.0160527  -0.0079437   0.3690022   0.0036670   0.3537717

             6           7           8

    6    2.9034517
    7    0.4506523   3.4575784
    8    0.4506523  -0.0245322   3.4575783

          TOTAL MULLIKEN AND LOWDIN ATOMIC POPULATIONS
       ATOM         MULL.POP.    CHARGE          LOW.POP.     CHARGE
    1 H             1.088033   -0.088033         0.859440    0.140560
    2 H             0.947085    0.052915         0.867607    0.132393
    3 H             0.947085    0.052915         0.867607    0.132393
    4 H             0.863293    0.136707         0.820125    0.179875
    5 H             0.863293    0.136707         0.820125    0.179875
    6 C             4.118926   -0.118926         3.796211    0.203789
    7 N             4.586143    0.413857         4.984443    0.015557
    8 N             4.586143    0.413857         4.984442    0.015558

          MULLIKEN SPHERICAL HARMONIC POPULATIONS
       ATOM           S       P       D      F      G      H      I    TOTAL
    1 H             1.07    0.02    0.00   0.00   0.00   0.00   0.00    1.09
    2 H             0.88    0.07    0.00   0.00   0.00   0.00   0.00    0.95
    3 H             0.88    0.07    0.00   0.00   0.00   0.00   0.00    0.95
    4 H             0.81    0.05    0.00   0.00   0.00   0.00   0.00    0.86
    5 H             0.81    0.05    0.00   0.00   0.00   0.00   0.00    0.86
    6 C             1.37    2.59    0.16   0.00   0.00   0.00   0.00    4.12
    7 N             0.92    3.62    0.04   0.00   0.00   0.00   0.00    4.59
    8 N             0.92    3.62    0.04   0.00   0.00   0.00   0.00    4.59

          ---------------------
          ELECTROSTATIC MOMENTS
          ---------------------

 POINT   1           X           Y           Z (BOHR)    CHARGE
                 0.000000    0.000000    0.004366        1.00 (A.U.)
         DX          DY          DZ         /D/  (DEBYE)
     0.000000    0.000000    1.540067    1.540067
 ...... END OF PROPERTY EVALUATION ......
 STEP CPU TIME =     0.02 TOTAL CPU TIME =       14.2 (    0.2 MIN)
 TOTAL WALL CLOCK TIME=       14.0 SECONDS, CPU UTILIZATION IS 101.64%
                933349  WORDS OF DYNAMIC MEMORY USED
 EXECUTION OF GAMESS TERMINATED NORMALLY Tue Sep 26 17:08:16 2017
 DDI: 1128 bytes (0.0 MB / 0 MWords) used by master data server.

 ----------------------------------------
 CPU timing information for all processes
 ========================================
 0: 13.060816 + 1.184074 = 14.244890
 ----------------------------------------
 ddikick.x: exited gracefully.
----- accounting info -----
Tue Sep 26 17:08:19 CEST 2017
Files used on the master node lpqlx139 were:
-rw-r--r-- 1 scemama scemama    240113 Sep 26 17:08 /dev/shm//gamess/C1.dat
-rw-r--r-- 1 scemama scemama    222578 Sep 26 17:08 /dev/shm//gamess/C1.F05
-rw-r--r-- 1 scemama scemama 147613120 Sep 26 17:08 /dev/shm//gamess/C1.F08
-rw-r--r-- 1 scemama scemama    235248 Sep 26 17:08 /dev/shm//gamess/C1.F09
-rw-r--r-- 1 scemama scemama   9685120 Sep 26 17:08 /dev/shm//gamess/C1.F10
-rw-r--r-- 1 scemama scemama    268000 Sep 26 17:08 /dev/shm//gamess/C1.F11
-rw-r--r-- 1 scemama scemama       248 Sep 26 17:08 /dev/shm//gamess/C1.F12
-rw-r--r-- 1 scemama scemama    107752 Sep 26 17:08 /dev/shm//gamess/C1.F13
-rw-r--r-- 1 scemama scemama   4800008 Sep 26 17:08 /dev/shm//gamess/C1.F14
-rw-r--r-- 1 scemama scemama    180464 Sep 26 17:08 /dev/shm//gamess/C1.F15
-rw-r--r-- 1 scemama scemama    180464 Sep 26 17:08 /dev/shm//gamess/C1.F16
-rw-r--r-- 1 scemama scemama    295776 Sep 26 17:08 /dev/shm//gamess/C1.F23
0.092u 0.020s 0:17.46 0.6%	0+0k 0+0io 0pf+0w
