----- GAMESS execution script -----
This job is running on host lpqlx139
under operating system Linux at Tue Sep 26 17:08:24 CEST 2017
Available scratch disk space (Kbyte units) at beginning of the job is
Filesystem     1K-blocks    Used Available Use% Mounted on
tmpfs            6592140 2721844   3870296  42% /run/shm

 Distributed Data Interface kickoff program.
 Initiating 1 compute processes on 1 nodes to run the following command:
 /usr/local/gamess/gamess.01.x C3 

          ******************************************************
          *         GAMESS VERSION = 22 FEB 2006 (R5)          *
          *             FROM IOWA STATE UNIVERSITY             *
          * M.W.SCHMIDT, K.K.BALDRIDGE, J.A.BOATZ, S.T.ELBERT, *
          *   M.S.GORDON, J.H.JENSEN, S.KOSEKI, N.MATSUNAGA,   *
          *          K.A.NGUYEN, S.J.SU, T.L.WINDUS,           *
          *       TOGETHER WITH M.DUPUIS, J.A.MONTGOMERY       *
          *         J.COMPUT.CHEM.  14, 1347-1363(1993)        *
          ***************** AMD 64 BIT VERSION *****************

     SINCE 1993, STUDENTS AND POSTDOCS WORKING AT IOWA STATE UNIVERSITY
     AND ALSO IN THEIR VARIOUS JOBS AFTER LEAVING ISU HAVE MADE IMPORTANT
     CONTRIBUTIONS TO THE CODE:
     IVANA ADAMOVIC, CHRISTINE AIKENS, YURI ALEXEEV, POOJA ARORA, ROB BELL,
     PRADIPTA BANDYOPADHYAY, BRETT BODE, GALINA CHABAN, WEI CHEN,
     CHEOL HO CHOI, PAUL DAY, TIM DUDLEY, DMITRI FEDOROV, GRAHAM FLETCHER,
     MARK FREITAG, KURT GLAESEMANN, GRANT MERRILL, TAKESHI NAGATA,
     HEATHER NETZLOFF, BOSILJKA NJEGIC, RYAN OLSON, MIKE PAK, JIM SHOEMAKER,
     LYUDMILA SLIPCHENKO, JIE SONG, TETSUYA TAKETSUGU, SIMON WEBB.

     ADDITIONAL CODE HAS BEEN PROVIDED BY COLLABORATORS IN OTHER GROUPS:
     IOWA STATE UNIVERSITY: JOE IVANIC, KLAUS RUEDENBERG
     UNIVERSITY OF TOKYO: KIMIHIKO HIRAO, HARUYUKI NAKANO, TAKAHITO
          NAKAJIMA, TAKAO TSUNEDA, MUNEAKI KAMIYA, SUSUMU YANAGISAWA,
          KIYOSHI YAGI
     UNIVERSITY OF SOUTHERN DENMARK: FRANK JENSEN
     UNIVERSITY OF IOWA: VISVALDAS KAIRYS, HUI LI
     NATIONAL INST. OF STANDARDS AND TECHNOLOGY: WALT STEVENS, DAVID GARMER
     UNIVERSITY OF PISA: BENEDETTA MENNUCCI, JACOPO TOMASI
     UNIVERSITY OF MEMPHIS: HENRY KURTZ, PRAKASHAN KORAMBATH
     UNIVERSITY OF ALBERTA: MARIUSZ KLOBUKOWSKI
     UNIVERSITY OF NEW ENGLAND: MARK SPACKMAN
     MIE UNIVERSITY: HIROAKI UMEDA
     MICHIGAN STATE UNIVERSITY:
          KAROL KOWALSKI, MARTA WLOCH, PIOTR PIECUCH
     UNIVERSITY OF SILESIA: MONIKA MUSIAL, STANISLAW KUCHARSKI
     FACULTES UNIVERSITAIRES NOTRE-DAME DE LA PAIX:
          OLIVIER QUINET, BENOIT CHAMPAGNE
     UNIVERSITY OF CALIFORNIA - SANTA BARBARA: BERNARD KIRTMAN
     INSTITUTE FOR MOLECULAR SCIENCE: KAZUYA ISHIMURA AND SHIGERU NAGASE
     UNIVERSITY OF NOTRE DAME: DAN CHIPMAN
     KYUSHU UNIVERSITY:
          FENG LONG GU, JACEK KORCHOWIEC, MARCIN MAKOWSKI, AND YURIKO AOKI
     PENNSYLVANIA STATE UNIVERSITY:
          TZVETELIN IORDANOV, CHET SWALINA, SHARON HAMMES-SCHIFFER

 EXECUTION OF GAMESS BEGUN Tue Sep 26 17:08:25 2017

            ECHO OF THE FIRST FEW INPUT CARDS -
 INPUT CARD> $CONTRL                                                                        
 INPUT CARD>   EXETYP=RUN COORD=UNIQUE  UNITS=ANGS                                          
 INPUT CARD>   RUNTYP=ENERGY SCFTYP=MCSCF CITYP=NONE                                        
 INPUT CARD>   MAXIT=100                                                                    
 INPUT CARD>   ISPHER=1                                                                     
 INPUT CARD>   MULT=1                                                                       
 INPUT CARD>   ICHARG=1                                                                     
 INPUT CARD>   MPLEVL=0                                                                     
 INPUT CARD>   ECP=READ                                                                     
 INPUT CARD> $END                                                                           
 INPUT CARD>                                                                                
 INPUT CARD> $GUESS                                                                         
 INPUT CARD>  GUESS=MOREAD                                                                  
 INPUT CARD>  NORB=173                                                                      
 INPUT CARD> $END                                                                           
 INPUT CARD>                                                                                
 INPUT CARD> $SCF                                                                           
 INPUT CARD>  DIRSCF=.T.                                                                    
 INPUT CARD> $END                                                                           
 INPUT CARD>                                                                                
 INPUT CARD> $MCSCF                                                                         
 INPUT CARD>   FOCAS=.F.    SOSCF=.T.   FULLNR=.F.                                          
 INPUT CARD>   CISTEP=GUGA EKT=.F. QUAD=.F. JACOBI=.f.                                      
 INPUT CARD>   MAXIT=1000                                                                   
 INPUT CARD> $END                                                                           
 INPUT CARD>                                                                                
 INPUT CARD> $GUGDIA                                                                        
 INPUT CARD>  NSTATE=2                                                                      
 INPUT CARD> $END                                                                           
 INPUT CARD>                                                                                
 INPUT CARD> $GUGDM2                                                                        
 INPUT CARD>  WSTATE(1)=0.5,0.5                                                             
 INPUT CARD> $END                                                                           
 INPUT CARD>                                                                                
 INPUT CARD>                                                                                
 INPUT CARD> $DRT                                                                           
 INPUT CARD>  NMCC=13                                                                       
 INPUT CARD>  NDOC=1                                                                        
 INPUT CARD>  NALP=0                                                                        
 INPUT CARD>  NVAL=1                                                                        
 INPUT CARD>  NEXT=0                                                                        
 INPUT CARD>  ISTSYM=1                                                                      
 INPUT CARD>  FORS=.TRUE.                                                                   
 INPUT CARD>  GROUP=C1                                                                      
 INPUT CARD>  MXNINT= 600000                                                                
 INPUT CARD>  NPRT=2                                                                        
 INPUT CARD> $END                                                                           
 INPUT CARD>                                                                                
 INPUT CARD> $GUGDM                                                                         
 INPUT CARD>  NFLGDM(1)=1,1                                                                 

 ..... DONE SETTING UP THE RUN .....
    1000000 WORDS OF MEMORY AVAILABLE

     $BASIS REQUESTS READING THE "BASIS   " BASIS SET FROM AN EXTERNAL FILE


     RUN TITLE
     ---------
 C3                                                                              

 THE POINT GROUP OF THE MOLECULE IS C1      
 THE ORDER OF THE PRINCIPAL AXIS IS     0

 THE EXTERNAL BASIS SET FILE BEING READ IS
     "/home/scemama/Cyanines/Runs/AVDZ_Pseudo/BASIS"
 *** WARNING! ATOM   1 SHELL    1 TYPE S HAS NORMALIZATION   1.32259418
 *** WARNING! ATOM   1 SHELL    3 TYPE P HAS NORMALIZATION  22.65171974
 *** WARNING! ATOM   2 SHELL    6 TYPE S HAS NORMALIZATION   1.32259418
 *** WARNING! ATOM   2 SHELL    8 TYPE P HAS NORMALIZATION  22.65171974
 *** WARNING! ATOM   3 SHELL   11 TYPE S HAS NORMALIZATION   1.32259418
 *** WARNING! ATOM   3 SHELL   13 TYPE P HAS NORMALIZATION  22.65171974
 *** WARNING! ATOM   4 SHELL   16 TYPE S HAS NORMALIZATION   1.32259418
 *** WARNING! ATOM   4 SHELL   18 TYPE P HAS NORMALIZATION  22.65171974
 *** WARNING! ATOM   5 SHELL   21 TYPE S HAS NORMALIZATION   1.32259418
 *** WARNING! ATOM   5 SHELL   23 TYPE P HAS NORMALIZATION  22.65171974
 *** WARNING! ATOM   6 SHELL   26 TYPE S HAS NORMALIZATION   1.32259418
 *** WARNING! ATOM   6 SHELL   28 TYPE P HAS NORMALIZATION  22.65171974
 *** WARNING! ATOM   7 SHELL   31 TYPE S HAS NORMALIZATION   1.32259418
 *** WARNING! ATOM   7 SHELL   33 TYPE P HAS NORMALIZATION  22.65171974

 ATOM      ATOMIC                      COORDINATES (BOHR)
           CHARGE         X                   Y                   Z
 H           1.0     0.0000000000        0.0000000000        2.6919638024
 H           1.0     0.0000000000        2.1924544218       -2.7385020843
 H           1.0     0.0000000000       -2.1924544218       -2.7385020843
 H           1.0     0.0000000000        4.7837128366        2.1957482142
 H           1.0     0.0000000000       -4.7837128366        2.1957482142
 H           1.0     0.0000000000        6.0686358014       -0.7840907760
 H           1.0     0.0000000000       -6.0686358014       -0.7840907760
 C           6.0     0.0000000000        0.0000000000        0.6436784659
 C           6.0     0.0000000000        2.2452174611       -0.6875087705
 C           6.0     0.0000000000       -2.2452174611       -0.6875087705
 N           7.0     0.0000000000        4.5147859312        0.3106955188
 N           7.0     0.0000000000       -4.5147859312        0.3106955188

          INTERNUCLEAR DISTANCES (ANGS.)
          ------------------------------

                    H              H              H              H         

  1  H               0.0000000      3.0990463      3.0990463      2.5450146 *  
  2  H               3.0990463      0.0000000      2.3203940 *    2.9492528 *  
  3  H               3.0990463      2.3203940 *    0.0000000      4.5217177    
  4  H               2.5450146 *    2.9492528 *    4.5217177      0.0000000    
  5  H               2.5450146 *    4.5217177      2.9492528 *    5.0628640    
  6  H               3.7008864      2.2971721 *    4.4922547      1.7172162 *  
  7  H               3.7008864      4.4922547      2.2971721 *    5.9553701    
  8  C               1.0839060 *    2.1329192 *    2.1329192 *    2.6613370 *  
  9  C               2.1470408 *    1.0856981 *    2.5869952 *    2.0328349 *  
 10  C               2.1470408 *    2.5869952 *    1.0856981 *    4.0203206    
 11  N               2.7010718 *    2.0282633 *    3.8988794      1.0076270 *  
 12  N               2.7010718 *    3.8988794      2.0282633 *    5.0206485    

                    H              H              H              C         

  1  H               2.5450146 *    3.7008864      3.7008864      1.0839060 *  
  2  H               4.5217177      2.2971721 *    4.4922547      2.1329192 *  
  3  H               2.9492528 *    4.4922547      2.2971721 *    2.1329192 *  
  4  H               5.0628640      1.7172162 *    5.9553701      2.6613370 *  
  5  H               0.0000000      5.9553701      1.7172162 *    2.6613370 *  
  6  H               5.9553701      0.0000000      6.4227680      3.2990654    
  7  H               1.7172162 *    6.4227680      0.0000000      3.2990654    
  8  C               2.6613370 *    3.2990654      3.2990654      0.0000000    
  9  C               4.0203206      2.0239114 *    4.3997989      1.3812500 *  
 10  C               2.0328349 *    4.3997989      2.0239114 *    1.3812500 *  
 11  N               5.0206485      1.0058554 *    5.6303905      2.3956112 *  
 12  N               1.0076270 *    5.6303905      1.0058554 *    2.3956112 *  

                    C              C              N              N         

  1  H               2.1470408 *    2.1470408 *    2.7010718 *    2.7010718 *  
  2  H               1.0856981 *    2.5869952 *    2.0282633 *    3.8988794    
  3  H               2.5869952 *    1.0856981 *    3.8988794      2.0282633 *  
  4  H               2.0328349 *    4.0203206      1.0076270 *    5.0206485    
  5  H               4.0203206      2.0328349 *    5.0206485      1.0076270 *  
  6  H               2.0239114 *    4.3997989      1.0058554 *    5.6303905    
  7  H               4.3997989      2.0239114 *    5.6303905      1.0058554 *  
  8  C               1.3812500 *    1.3812500 *    2.3956112 *    2.3956112 *  
  9  C               0.0000000      2.3762360 *    1.3120344 *    3.6160296    
 10  C               2.3762360 *    0.0000000      3.6160296      1.3120344 *  
 11  N               1.3120344 *    3.6160296      0.0000000      4.7782440    
 12  N               3.6160296      1.3120344 *    4.7782440      0.0000000    

  * ... LESS THAN  3.000


     ATOMIC BASIS SET
     ----------------
 THE CONTRACTED PRIMITIVE FUNCTIONS HAVE BEEN UNNORMALIZED
 THE CONTRACTED BASIS FUNCTIONS ARE NOW NORMALIZED TO UNITY

  SHELL TYPE  PRIMITIVE        EXPONENT          CONTRACTION COEFFICIENT(S)

 H         

      1   S       1             0.0130000    0.000933751491
      1   S       2             0.0299000   -0.002802577067
      1   S       3             0.0687700    0.076304426024
      1   S       4             0.1581700    0.305115864344
      1   S       5             0.3637920    0.367168015485
      1   S       6             0.8367210    0.224620137364
      1   S       7             1.9244580    0.128877544677
      1   S       8             4.4262540    0.039632857196
      1   S       9            10.1803850   -0.000597812569

      2   S      10             0.1704830    1.000000000000

      3   P      11             0.0030000    0.028133435917
      3   P      12             0.0078000   -0.020681020122
      3   P      13             0.0202810   -0.001223192866
      3   P      14             0.0527300   -0.005391109298
      3   P      15             0.1370970   -0.261174328600
      3   P      16             0.3564510   -0.413054109456
      3   P      17             0.9267740   -0.315515804256
      3   P      18             2.4096120   -0.212812906956
      3   P      19             6.2649910   -0.007860146750

      4   S      20             0.0297400    1.000000000000

      5   P      21             0.1410000    1.000000000000

 H         

      6   S      22             0.0130000    0.000933751491
      6   S      23             0.0299000   -0.002802577067
      6   S      24             0.0687700    0.076304426024
      6   S      25             0.1581700    0.305115864344
      6   S      26             0.3637920    0.367168015485
      6   S      27             0.8367210    0.224620137364
      6   S      28             1.9244580    0.128877544677
      6   S      29             4.4262540    0.039632857196
      6   S      30            10.1803850   -0.000597812569

      7   S      31             0.1704830    1.000000000000

      8   P      32             0.0030000    0.028133435917
      8   P      33             0.0078000   -0.020681020122
      8   P      34             0.0202810   -0.001223192866
      8   P      35             0.0527300   -0.005391109298
      8   P      36             0.1370970   -0.261174328600
      8   P      37             0.3564510   -0.413054109456
      8   P      38             0.9267740   -0.315515804256
      8   P      39             2.4096120   -0.212812906956
      8   P      40             6.2649910   -0.007860146750

      9   S      41             0.0297400    1.000000000000

     10   P      42             0.1410000    1.000000000000

 H         

     11   S      43             0.0130000    0.000933751491
     11   S      44             0.0299000   -0.002802577067
     11   S      45             0.0687700    0.076304426024
     11   S      46             0.1581700    0.305115864344
     11   S      47             0.3637920    0.367168015485
     11   S      48             0.8367210    0.224620137364
     11   S      49             1.9244580    0.128877544677
     11   S      50             4.4262540    0.039632857196
     11   S      51            10.1803850   -0.000597812569

     12   S      52             0.1704830    1.000000000000

     13   P      53             0.0030000    0.028133435917
     13   P      54             0.0078000   -0.020681020122
     13   P      55             0.0202810   -0.001223192866
     13   P      56             0.0527300   -0.005391109298
     13   P      57             0.1370970   -0.261174328600
     13   P      58             0.3564510   -0.413054109456
     13   P      59             0.9267740   -0.315515804256
     13   P      60             2.4096120   -0.212812906956
     13   P      61             6.2649910   -0.007860146750

     14   S      62             0.0297400    1.000000000000

     15   P      63             0.1410000    1.000000000000

 H         

     16   S      64             0.0130000    0.000933751491
     16   S      65             0.0299000   -0.002802577067
     16   S      66             0.0687700    0.076304426024
     16   S      67             0.1581700    0.305115864344
     16   S      68             0.3637920    0.367168015485
     16   S      69             0.8367210    0.224620137364
     16   S      70             1.9244580    0.128877544677
     16   S      71             4.4262540    0.039632857196
     16   S      72            10.1803850   -0.000597812569

     17   S      73             0.1704830    1.000000000000

     18   P      74             0.0030000    0.028133435917
     18   P      75             0.0078000   -0.020681020122
     18   P      76             0.0202810   -0.001223192866
     18   P      77             0.0527300   -0.005391109298
     18   P      78             0.1370970   -0.261174328600
     18   P      79             0.3564510   -0.413054109456
     18   P      80             0.9267740   -0.315515804256
     18   P      81             2.4096120   -0.212812906956
     18   P      82             6.2649910   -0.007860146750

     19   S      83             0.0297400    1.000000000000

     20   P      84             0.1410000    1.000000000000

 H         

     21   S      85             0.0130000    0.000933751491
     21   S      86             0.0299000   -0.002802577067
     21   S      87             0.0687700    0.076304426024
     21   S      88             0.1581700    0.305115864344
     21   S      89             0.3637920    0.367168015485
     21   S      90             0.8367210    0.224620137364
     21   S      91             1.9244580    0.128877544677
     21   S      92             4.4262540    0.039632857196
     21   S      93            10.1803850   -0.000597812569

     22   S      94             0.1704830    1.000000000000

     23   P      95             0.0030000    0.028133435917
     23   P      96             0.0078000   -0.020681020122
     23   P      97             0.0202810   -0.001223192866
     23   P      98             0.0527300   -0.005391109298
     23   P      99             0.1370970   -0.261174328600
     23   P     100             0.3564510   -0.413054109456
     23   P     101             0.9267740   -0.315515804256
     23   P     102             2.4096120   -0.212812906956
     23   P     103             6.2649910   -0.007860146750

     24   S     104             0.0297400    1.000000000000

     25   P     105             0.1410000    1.000000000000

 H         

     26   S     106             0.0130000    0.000933751491
     26   S     107             0.0299000   -0.002802577067
     26   S     108             0.0687700    0.076304426024
     26   S     109             0.1581700    0.305115864344
     26   S     110             0.3637920    0.367168015485
     26   S     111             0.8367210    0.224620137364
     26   S     112             1.9244580    0.128877544677
     26   S     113             4.4262540    0.039632857196
     26   S     114            10.1803850   -0.000597812569

     27   S     115             0.1704830    1.000000000000

     28   P     116             0.0030000    0.028133435917
     28   P     117             0.0078000   -0.020681020122
     28   P     118             0.0202810   -0.001223192866
     28   P     119             0.0527300   -0.005391109298
     28   P     120             0.1370970   -0.261174328600
     28   P     121             0.3564510   -0.413054109456
     28   P     122             0.9267740   -0.315515804256
     28   P     123             2.4096120   -0.212812906956
     28   P     124             6.2649910   -0.007860146750

     29   S     125             0.0297400    1.000000000000

     30   P     126             0.1410000    1.000000000000

 H         

     31   S     127             0.0130000    0.000933751491
     31   S     128             0.0299000   -0.002802577067
     31   S     129             0.0687700    0.076304426024
     31   S     130             0.1581700    0.305115864344
     31   S     131             0.3637920    0.367168015485
     31   S     132             0.8367210    0.224620137364
     31   S     133             1.9244580    0.128877544677
     31   S     134             4.4262540    0.039632857196
     31   S     135            10.1803850   -0.000597812569

     32   S     136             0.1704830    1.000000000000

     33   P     137             0.0030000    0.028133435917
     33   P     138             0.0078000   -0.020681020122
     33   P     139             0.0202810   -0.001223192866
     33   P     140             0.0527300   -0.005391109298
     33   P     141             0.1370970   -0.261174328600
     33   P     142             0.3564510   -0.413054109456
     33   P     143             0.9267740   -0.315515804256
     33   P     144             2.4096120   -0.212812906956
     33   P     145             6.2649910   -0.007860146750

     34   S     146             0.0297400    1.000000000000

     35   P     147             0.1410000    1.000000000000

 C         

     36   S     148             0.0513440    0.013990987871
     36   S     149             0.1026190    0.169851852753
     36   S     150             0.2051000    0.397528655377
     36   S     151             0.4099240    0.380368670253
     36   S     152             0.8192970    0.180112843858
     36   S     153             1.6374940   -0.033511970948
     36   S     154             3.2727910   -0.121498894671
     36   S     155             6.5411870    0.015175986844
     36   S     156            13.0735940   -0.000704999389

     37   S     157             0.1278520    1.000000000000

     38   P     158             0.0292810    0.001787000047
     38   P     159             0.0585470    0.050426001336
     38   P     160             0.1170630    0.191634005079
     38   P     161             0.2340640    0.302667008021
     38   P     162             0.4680030    0.289868007682
     38   P     163             0.9357570    0.210979005591
     38   P     164             1.8710160    0.112024002969
     38   P     165             3.7410350    0.054425001442
     38   P     166             7.4800760    0.021931000581

     39   P     167             0.1491610    1.000000000000

     40   D     168             0.5611600    1.000000000000

     41   S     169             0.0469000    1.000000000000

     42   P     170             0.0404100    1.000000000000

     43   D     171             0.1510000    1.000000000000

 C         

     44   S     172             0.0513440    0.013990987871
     44   S     173             0.1026190    0.169851852753
     44   S     174             0.2051000    0.397528655377
     44   S     175             0.4099240    0.380368670253
     44   S     176             0.8192970    0.180112843858
     44   S     177             1.6374940   -0.033511970948
     44   S     178             3.2727910   -0.121498894671
     44   S     179             6.5411870    0.015175986844
     44   S     180            13.0735940   -0.000704999389

     45   S     181             0.1278520    1.000000000000

     46   P     182             0.0292810    0.001787000047
     46   P     183             0.0585470    0.050426001336
     46   P     184             0.1170630    0.191634005079
     46   P     185             0.2340640    0.302667008021
     46   P     186             0.4680030    0.289868007682
     46   P     187             0.9357570    0.210979005591
     46   P     188             1.8710160    0.112024002969
     46   P     189             3.7410350    0.054425001442
     46   P     190             7.4800760    0.021931000581

     47   P     191             0.1491610    1.000000000000

     48   D     192             0.5611600    1.000000000000

     49   S     193             0.0469000    1.000000000000

     50   P     194             0.0404100    1.000000000000

     51   D     195             0.1510000    1.000000000000

 C         

     52   S     196             0.0513440    0.013990987871
     52   S     197             0.1026190    0.169851852753
     52   S     198             0.2051000    0.397528655377
     52   S     199             0.4099240    0.380368670253
     52   S     200             0.8192970    0.180112843858
     52   S     201             1.6374940   -0.033511970948
     52   S     202             3.2727910   -0.121498894671
     52   S     203             6.5411870    0.015175986844
     52   S     204            13.0735940   -0.000704999389

     53   S     205             0.1278520    1.000000000000

     54   P     206             0.0292810    0.001787000047
     54   P     207             0.0585470    0.050426001336
     54   P     208             0.1170630    0.191634005079
     54   P     209             0.2340640    0.302667008021
     54   P     210             0.4680030    0.289868007682
     54   P     211             0.9357570    0.210979005591
     54   P     212             1.8710160    0.112024002969
     54   P     213             3.7410350    0.054425001442
     54   P     214             7.4800760    0.021931000581

     55   P     215             0.1491610    1.000000000000

     56   D     216             0.5611600    1.000000000000

     57   S     217             0.0469000    1.000000000000

     58   P     218             0.0404100    1.000000000000

     59   D     219             0.1510000    1.000000000000

 N         

     60   S     220             0.0988690    0.067266010234
     60   S     221             0.2114430    0.334290050859
     60   S     222             0.4521970    0.454257069111
     60   S     223             0.9670800    0.267861040752
     60   S     224             2.0682210    0.000248000038
     60   S     225             4.4231500   -0.132606020175
     60   S     226             9.4594620    0.014437002196
     60   S     227            20.2302460    0.000359000055
     60   S     228            43.2649190   -0.000094000014

     61   S     229             0.1751230    1.000000000000

     62   P     230             0.0732340    0.035757988749
     62   P     231             0.1458670    0.153944951562
     62   P     232             0.2905350    0.277655912638
     62   P     233             0.5786830    0.297675906338
     62   P     234             1.1526120    0.234402926247
     62   P     235             2.2957560    0.140320955849
     62   P     236             4.5726520    0.067218978850
     62   P     237             9.1077390    0.031593990059
     62   P     238            18.1406570    0.003300998961

     63   P     239             0.2230420    1.000000000000

     64   D     240             0.8320580    1.000000000000

     65   S     241             0.0612400    1.000000000000

     66   P     242             0.0561100    1.000000000000

     67   D     243             0.2300000    1.000000000000

 N         

     68   S     244             0.0988690    0.067266010234
     68   S     245             0.2114430    0.334290050859
     68   S     246             0.4521970    0.454257069111
     68   S     247             0.9670800    0.267861040752
     68   S     248             2.0682210    0.000248000038
     68   S     249             4.4231500   -0.132606020175
     68   S     250             9.4594620    0.014437002196
     68   S     251            20.2302460    0.000359000055
     68   S     252            43.2649190   -0.000094000014

     69   S     253             0.1751230    1.000000000000

     70   P     254             0.0732340    0.035757988749
     70   P     255             0.1458670    0.153944951562
     70   P     256             0.2905350    0.277655912638
     70   P     257             0.5786830    0.297675906338
     70   P     258             1.1526120    0.234402926247
     70   P     259             2.2957560    0.140320955849
     70   P     260             4.5726520    0.067218978850
     70   P     261             9.1077390    0.031593990059
     70   P     262            18.1406570    0.003300998961

     71   P     263             0.2230420    1.000000000000

     72   D     264             0.8320580    1.000000000000

     73   S     265             0.0612400    1.000000000000

     74   P     266             0.0561100    1.000000000000

     75   D     267             0.2300000    1.000000000000

 TOTAL NUMBER OF BASIS SET SHELLS             =   75
 NUMBER OF CARTESIAN GAUSSIAN BASIS FUNCTIONS =  183
 NOTE: THIS RUN WILL RESTRICT THE MO VARIATION SPACE TO SPHERICAL HARMONICS.
 THE NUMBER OF ORBITALS KEPT IN THE VARIATIONAL SPACE WILL BE PRINTED LATER.
 NUMBER OF ELECTRONS                          =   38
 CHARGE OF MOLECULE                           =    1
 SPIN MULTIPLICITY                            =    1
 NUMBER OF OCCUPIED ORBITALS (ALPHA)          =   19
 NUMBER OF OCCUPIED ORBITALS (BETA )          =   19
 TOTAL NUMBER OF ATOMS                        =   12
 THE NUCLEAR REPULSION ENERGY IS      165.8640811568
 NOTE THIS RUN IS USING CORE POTENTIALS, AND THE NUMBER OF ELECTRONS,
 OCCUPIED ORBITALS, AND NUCLEAR REPULSION ENERGY WILL BE ADJUSTED BELOW
 AFTER REMOVAL OF THE CORE CHARGES.

     $CONTRL OPTIONS
     ---------------
 SCFTYP=MCSCF        RUNTYP=ENERGY       EXETYP=RUN     
 MPLEVL=       0     CITYP =NONE         CCTYP =NONE         VBTYP =NONE    
 MULT  =       1     ICHARG=       1     NZVAR =       0     COORD =UNIQUE  
 PP    =READ         RELWFN=NONE         LOCAL =NONE         NUMGRD=       F
 ISPHER=       1     NOSYM =       0     MAXIT =     100     UNITS =ANGS    
 PLTORB=       F     MOLPLT=       F     AIMPAC=       F     FRIEND=        
 NPRINT=       7     IREST =       0     GEOM  =INPUT   
 NORMF =       0     NORMP =       0     ITOL  =      20     ICUT  =       9
 INTTYP=BEST         GRDTYP=BEST         QMTTOL= 1.0E-06

     $SYSTEM OPTIONS
     ---------------
  REPLICATED MEMORY=     1000000 WORDS (ON EVERY NODE).
 DISTRIBUTED MEMDDI=           0 MILLION WORDS IN AGGREGATE,
 MEMDDI DISTRIBUTED OVER   1 PROCESSORS IS           0 WORDS/PROCESSOR.
 TOTAL MEMORY REQUESTED ON EACH PROCESSOR=     1000000 WORDS.
 TIMLIM=      525600.00 MINUTES, OR   365.00 DAYS.
 PARALL= F  BALTYP=  NXTVAL  KDIAG=    0  COREFL= F

          --------------
          ECP POTENTIALS
          --------------

 PARAMETERS FOR "H       " ON ATOM    1 WITH ZCORE   0 AND LMAX  0 ARE
 FOR L= 0      COEFF    N           ZETA
    1        1.00000    1        4.47692
    2        4.47692    3        2.97636
    3       -4.32112    2        3.01842

 PARAMETERS FOR "H       " ON ATOM    2 ARE THE SAME AS ATOM   1

 PARAMETERS FOR "H       " ON ATOM    3 ARE THE SAME AS ATOM   1

 PARAMETERS FOR "H       " ON ATOM    4 ARE THE SAME AS ATOM   1

 PARAMETERS FOR "H       " ON ATOM    5 ARE THE SAME AS ATOM   1

 PARAMETERS FOR "H       " ON ATOM    6 ARE THE SAME AS ATOM   1

 PARAMETERS FOR "H       " ON ATOM    7 ARE THE SAME AS ATOM   1

 PARAMETERS FOR "C       " ON ATOM    8 WITH ZCORE   2 AND LMAX  1 ARE
 FOR L= 1      COEFF    N           ZETA
    1        4.00000    1        8.35974
    2       33.43895    3        4.48362
    3      -19.17537    2        3.93831
 FOR L= 0      COEFF    N           ZETA
    1       22.55164    2        5.02992

 PARAMETERS FOR "C       " ON ATOM    9 ARE THE SAME AS ATOM   8

 PARAMETERS FOR "C       " ON ATOM   10 ARE THE SAME AS ATOM   8

 PARAMETERS FOR "N       " ON ATOM   11 WITH ZCORE   2 AND LMAX  1 ARE
 FOR L= 1      COEFF    N           ZETA
    1        5.00000    1        9.23501
    2       46.17505    3        7.66830
    3      -30.18894    2        7.34486
 FOR L= 0      COEFF    N           ZETA
    1       31.69720    2        6.99537

 PARAMETERS FOR "N       " ON ATOM   12 ARE THE SAME AS ATOM  11

 THE ECP RUN REMOVES   10 CORE ELECTRONS, AND THE SAME NUMBER OF PROTONS.
 NUMBER OF ELECTRONS KEPT IN THE CALCULATION IS =   28
 NUMBER OF OCCUPIED ORBITALS (ALPHA) KEPT IS    =   14
 NUMBER OF OCCUPIED ORBITALS (BETA ) KEPT IS    =   14
 THE ADJUSTED NUCLEAR REPULSION ENERGY=       91.8959155152
          ECP ANGULAR INTS.........     0.00 SECONDS

          ----------------
          PROPERTIES INPUT
          ----------------

     MOMENTS            FIELD           POTENTIAL          DENSITY
 IEMOM =       1   IEFLD =       0   IEPOT =       0   IEDEN =       0
 WHERE =COMASS     WHERE =NUCLEI     WHERE =NUCLEI     WHERE =NUCLEI  
 OUTPUT=BOTH       OUTPUT=BOTH       OUTPUT=BOTH       OUTPUT=BOTH    
 IEMINT=       0   IEFINT=       0                     IEDINT=       0
                                                       MORB  =       0

     -------------------------------
     INTEGRAL TRANSFORMATION OPTIONS
     -------------------------------
     NWORD  =       0     CUTOFF = 1.0E-09
     MPTRAN =       0     DIRTRF =       F
     AOINTS =DUP     

          ----------------------
          MCSCF INPUT PARAMETERS
          ----------------------
 CONVERGER SELECTION: FOCAS = F  SOSCF = T  FULLNR = F  QUD = F  JACOBI = F
 SECULAR EQUATION METHOD CISTEP = GUGA    
 --- GENERAL INPUT OPTIONS:
 MAXIT =    1000  MICIT =       5  ACURCY= 1.000E-05
 DAMP  =   0.000  CANONC=       T  ENGTOL= 1.000E-10
 EKT   =       F  NPUNCH=       2  NWORD =         0
 --- INPUT FOR SOSCF CONVERGER:
 FORS  =       T  NOFO  =       1

          ----------------------
          INTEGRAL INPUT OPTIONS
          ----------------------
 NOPK  =       1 NORDER=       0 SCHWRZ=       T

     ------------------------------------------
     THE POINT GROUP IS C1 , NAXIS= 0, ORDER= 1
     ------------------------------------------

 -- VARIATIONAL SPACE WILL BE RESTRICTED TO PURE SPHERICAL HARMONICS ONLY --
 AFTER EXCLUDING CONTAMINANT COMBINATIONS FROM THE CARTESIAN GAUSSIAN BASIS
 SET, THE NUMBER OF SPHERICAL HARMONICS KEPT IN THE VARIATION SPACE IS  173

     DIMENSIONS OF THE SYMMETRY SUBSPACES ARE
 A   =  173

 ..... DONE SETTING UP THE RUN .....
 STEP CPU TIME =     0.03 TOTAL CPU TIME =        0.0 (    0.0 MIN)
 TOTAL WALL CLOCK TIME=        0.0 SECONDS, CPU UTILIZATION IS 100.00%

          ********************
          1 ELECTRON INTEGRALS
          ********************
 TIME TO DO ORDINARY INTEGRALS=      0.05
 TIME TO DO      ECP INTEGRALS=      0.37
 TIME TO DO   DIPOLE INTEGRALS=      0.01
 ...... END OF ONE-ELECTRON INTEGRALS ......
 STEP CPU TIME =     0.43 TOTAL CPU TIME =        0.5 (    0.0 MIN)
 TOTAL WALL CLOCK TIME=        0.0 SECONDS, CPU UTILIZATION IS 100.00%

          -------------
          GUESS OPTIONS
          -------------
          GUESS =MOREAD            NORB  =     173          NORDER=       0
          MIX   =       F          PRTMO =       F          PUNMO =       F
          TOLZ  = 1.0E-08          TOLE  = 1.0E-05
          SYMDEN=       F          PURIFY=       F

 INITIAL GUESS ORBITALS GENERATED BY MOREAD   ROUTINE.

 STATISTICS FOR GENERATION OF SYMMETRY ORBITAL -Q- MATRIX
 NUMBER OF CARTESIAN ATOMIC ORBITALS=        183
 NUMBER OF SPHERICAL CONTAMINANTS DROPPED=    10
 NUMBER OF LINEARLY DEPENDENT MOS DROPPED=     0
 TOTAL NUMBER OF MOS IN VARIATION SPACE=     173

                    * * * * * WARNING * * * * *
 POSSIBLE LINEAR DEPENDENCE PROBLEMS DETECTED, INPUT QMTTOL= 1.0E-06,
 WITH     2 OVERLAP EIGENVALUES LYING BETWEEN 1.0E-05 AND QMTTOL.
 IF YOU EXPERIENCE SCF CONVERGENCE DIFFICULTIES WITH THE DENSITY ALMOST BUT
 NOT QUITE CONVERGED, YOU MAY NEED TO LOOSEN -QMTTOL- BY A FACTOR 5 TO 10.

 SYMMETRIES FOR INITIAL GUESS ORBITALS FOLLOW.   BOTH SET(S).
    15 ORBITALS ARE OCCUPIED (    0 CORE ORBITALS).
     1=A        2=A        3=A        4=A        5=A        6=A        7=A   
     8=A        9=A       10=A       11=A       12=A       13=A       14=A   
    15=A       16=A       17=A       18=A       19=A       20=A       21=A   
    22=A       23=A       24=A       25=A       26=A       27=A       28=A   
    29=A       30=A       31=A       32=A       33=A       34=A       35=A   
    36=A       37=A       38=A       39=A       40=A       41=A       42=A   
    43=A       44=A       45=A       46=A       47=A       48=A       49=A   
    50=A       51=A       52=A       53=A       54=A       55=A       56=A   
    57=A       58=A       59=A       60=A       61=A       62=A       63=A   
    64=A       65=A       66=A       67=A       68=A       69=A       70=A   
    71=A       72=A       73=A       74=A       75=A       76=A       77=A   
    78=A       79=A       80=A       81=A       82=A       83=A       84=A   
    85=A       86=A       87=A       88=A       89=A       90=A       91=A   
    92=A       93=A       94=A       95=A       96=A       97=A       98=A   
    99=A      100=A      101=A      102=A      103=A      104=A      105=A   
   106=A      107=A      108=A      109=A      110=A      111=A      112=A   
   113=A      114=A      115=A      116=A      117=A      118=A      119=A   
   120=A      121=A      122=A      123=A      124=A      125=A      126=A   
   127=A      128=A      129=A      130=A      131=A      132=A      133=A   
   134=A      135=A      136=A      137=A      138=A      139=A      140=A   
   141=A      142=A      143=A      144=A      145=A      146=A      147=A   
   148=A      149=A      150=A      151=A      152=A      153=A      154=A   
   155=A      156=A      157=A      158=A      159=A      160=A      161=A   
   162=A      163=A      164=A      165=A      166=A      167=A      168=A   
   169=A      170=A      171=A      172=A      173=A   
 ...... END OF INITIAL ORBITAL SELECTION ......
 STEP CPU TIME =     0.04 TOTAL CPU TIME =        0.5 (    0.0 MIN)
 TOTAL WALL CLOCK TIME=        0.0 SECONDS, CPU UTILIZATION IS 100.00%

                    ----------------------
                    AO INTEGRAL TECHNOLOGY
                    ----------------------
     S,P,L SHELL ROTATED AXIS INTEGRALS, REPROGRAMMED BY
        KAZUYA ISHIMURA (IMS) AND JOSE SIERRA (SYNSTAR).
     S,P,D,L SHELL ROTATED AXIS INTEGRALS PROGRAMMED BY
        KAZUYA ISHIMURA (INSTITUTE FOR MOLECULAR SCIENCE).
     S,P,D,F,G SHELL TO TOTAL QUARTET ANGULAR MOMENTUM SUM 5,
        ERIC PROGRAM BY GRAHAM FLETCHER (ELORET AND NASA ADVANCED
        SUPERCOMPUTING DIVISION, AMES RESEARCH CENTER).
     S,P,D,F,G,L SHELL GENERAL RYS QUADRATURE PROGRAMMED BY
        MICHEL DUPUIS (PACIFIC NORTHWEST NATIONAL LABORATORY).

          --------------------
          2 ELECTRON INTEGRALS
          --------------------

 THE -PK- OPTION IS OFF, THE INTEGRALS ARE NOT IN SUPERMATRIX FORM.
 STORING   15000 INTEGRALS/RECORD ON DISK, USING 12 BYTES/INTEGRAL.
 TWO ELECTRON INTEGRAL EVALUATION REQUIRES   93246 WORDS OF MEMORY.
 SCHWARZ INEQUALITY OVERHEAD:     16836 INTEGRALS, T=        0.09
 II,JST,KST,LST =  1  1  1  1 NREC =         1 INTLOC =    1
 II,JST,KST,LST =  2  1  1  1 NREC =         1 INTLOC =    2
 II,JST,KST,LST =  3  1  1  1 NREC =         1 INTLOC =    7
 II,JST,KST,LST =  4  1  1  1 NREC =         1 INTLOC =   34
 II,JST,KST,LST =  5  1  1  1 NREC =         1 INTLOC =   67
 II,JST,KST,LST =  6  1  1  1 NREC =         1 INTLOC =  214
 II,JST,KST,LST =  7  1  1  1 NREC =         1 INTLOC =  529
 II,JST,KST,LST =  8  1  1  1 NREC =         1 INTLOC =  960
 II,JST,KST,LST =  9  1  1  1 NREC =         1 INTLOC = 2759
 II,JST,KST,LST = 10  1  1  1 NREC =         1 INTLOC = 3764
 II,JST,KST,LST = 11  1  1  1 NREC =         1 INTLOC = 7491
 II,JST,KST,LST = 12  1  1  1 NREC =         1 INTLOC = 9438
 II,JST,KST,LST = 13  1  1  1 NREC =         1 INTLOC =11734
 II,JST,KST,LST = 14  1  1  1 NREC =         2 INTLOC = 4519
 II,JST,KST,LST = 15  1  1  1 NREC =         2 INTLOC = 8267
 II,JST,KST,LST = 16  1  1  1 NREC =         3 INTLOC = 5470
 II,JST,KST,LST = 17  1  1  1 NREC =         3 INTLOC =12044
 II,JST,KST,LST = 18  1  1  1 NREC =         4 INTLOC = 4435
 II,JST,KST,LST = 19  1  1  1 NREC =         5 INTLOC =13429
 II,JST,KST,LST = 20  1  1  1 NREC =         6 INTLOC = 9169
 II,JST,KST,LST = 21  1  1  1 NREC =         8 INTLOC =13306
 II,JST,KST,LST = 22  1  1  1 NREC =         9 INTLOC =13255
 II,JST,KST,LST = 23  1  1  1 NREC =        10 INTLOC =14572
 II,JST,KST,LST = 24  1  1  1 NREC =        14 INTLOC = 5077
 II,JST,KST,LST = 25  1  1  1 NREC =        15 INTLOC =11743
 II,JST,KST,LST = 26  1  1  1 NREC =        20 INTLOC = 2947
 II,JST,KST,LST = 27  1  1  1 NREC =        22 INTLOC = 1825
 II,JST,KST,LST = 28  1  1  1 NREC =        24 INTLOC = 2837
 II,JST,KST,LST = 29  1  1  1 NREC =        30 INTLOC = 6966
 II,JST,KST,LST = 30  1  1  1 NREC =        33 INTLOC = 1369
 II,JST,KST,LST = 31  1  1  1 NREC =        40 INTLOC =14955
 II,JST,KST,LST = 32  1  1  1 NREC =        44 INTLOC = 3932
 II,JST,KST,LST = 33  1  1  1 NREC =        47 INTLOC =10582
 II,JST,KST,LST = 34  1  1  1 NREC =        57 INTLOC =14926
 II,JST,KST,LST = 35  1  1  1 NREC =        62 INTLOC = 3559
 II,JST,KST,LST = 36  1  1  1 NREC =        74 INTLOC =10248
 II,JST,KST,LST = 37  1  1  1 NREC =        79 INTLOC =12554
 II,JST,KST,LST = 38  1  1  1 NREC =        85 INTLOC = 3949
 II,JST,KST,LST = 39  1  1  1 NREC =       101 INTLOC = 2890
 II,JST,KST,LST = 40  1  1  1 NREC =       119 INTLOC = 3836
 II,JST,KST,LST = 41  1  1  1 NREC =       162 INTLOC = 6629
 II,JST,KST,LST = 42  1  1  1 NREC =       171 INTLOC = 7117
 II,JST,KST,LST = 43  1  1  1 NREC =       197 INTLOC =13801
 II,JST,KST,LST = 44  1  1  1 NREC =       259 INTLOC = 9296
 II,JST,KST,LST = 45  1  1  1 NREC =       272 INTLOC = 9463
 II,JST,KST,LST = 46  1  1  1 NREC =       286 INTLOC = 2151
 II,JST,KST,LST = 47  1  1  1 NREC =       325 INTLOC =11086
 II,JST,KST,LST = 48  1  1  1 NREC =       369 INTLOC = 4492
 II,JST,KST,LST = 49  1  1  1 NREC =       469 INTLOC = 2892
 II,JST,KST,LST = 50  1  1  1 NREC =       489 INTLOC = 3360
 II,JST,KST,LST = 51  1  1  1 NREC =       547 INTLOC =12925
 II,JST,KST,LST = 52  1  1  1 NREC =       680 INTLOC = 7716
 II,JST,KST,LST = 53  1  1  1 NREC =       706 INTLOC =11558
 II,JST,KST,LST = 54  1  1  1 NREC =       733 INTLOC =12092
 II,JST,KST,LST = 55  1  1  1 NREC =       812 INTLOC = 9402
 II,JST,KST,LST = 56  1  1  1 NREC =       897 INTLOC = 8067
 II,JST,KST,LST = 57  1  1  1 NREC =      1086 INTLOC = 8580
 II,JST,KST,LST = 58  1  1  1 NREC =      1123 INTLOC = 6559
 II,JST,KST,LST = 59  1  1  1 NREC =      1230 INTLOC =11676
 II,JST,KST,LST = 60  1  1  1 NREC =      1467 INTLOC = 9926
 II,JST,KST,LST = 61  1  1  1 NREC =      1514 INTLOC = 6498
 II,JST,KST,LST = 62  1  1  1 NREC =      1562 INTLOC = 5530
 II,JST,KST,LST = 63  1  1  1 NREC =      1701 INTLOC =14745
 II,JST,KST,LST = 64  1  1  1 NREC =      1850 INTLOC = 9916
 II,JST,KST,LST = 65  1  1  1 NREC =      2170 INTLOC = 1040
 II,JST,KST,LST = 66  1  1  1 NREC =      2232 INTLOC = 8266
 II,JST,KST,LST = 67  1  1  1 NREC =      2414 INTLOC = 6774
 II,JST,KST,LST = 68  1  1  1 NREC =      2810 INTLOC = 5223
 II,JST,KST,LST = 69  1  1  1 NREC =      2885 INTLOC = 7456
 II,JST,KST,LST = 70  1  1  1 NREC =      2962 INTLOC = 2014
 II,JST,KST,LST = 71  1  1  1 NREC =      3184 INTLOC =12295
 II,JST,KST,LST = 72  1  1  1 NREC =      3417 INTLOC = 3262
 II,JST,KST,LST = 73  1  1  1 NREC =      3885 INTLOC = 1942
 II,JST,KST,LST = 74  1  1  1 NREC =      3981 INTLOC = 4055
 II,JST,KST,LST = 75  1  1  1 NREC =      4260 INTLOC = 2679
 SCHWARZ INEQUALITY TEST SKIPPED      3531 INTEGRAL BLOCKS.
 TOTAL NUMBER OF NONZERO TWO-ELECTRON INTEGRALS =            72753049
       4851 INTEGRAL RECORDS WERE STORED ON DISK FILE  8.
  ...... END OF TWO-ELECTRON INTEGRALS .....
 STEP CPU TIME =    29.56 TOTAL CPU TIME =       30.1 (    0.5 MIN)
 TOTAL WALL CLOCK TIME=       32.0 SECONDS, CPU UTILIZATION IS  93.94%

          -----------------
          MCSCF CALCULATION
          -----------------

 ----- NUCLEAR ENERGY ----- =        91.8959155152

          -----------------------     ----------------------------
          GUGA DISTINCT ROW TABLE     WRITTEN BY B.R.BROOKS,P.SAXE
          -----------------------     ----------------------------

      GROUP=C1           NPRT=       2
       FORS=       T   INTACT=       F
       FOCI=       F   MXNINT=  600000
       SOCI=       F   MXNEME=   10000
     IEXCIT=       0

      -CORE-    -INTERNAL-  -EXTERNAL-
     NFZC=   0   NDOC=   1   NEXT=   0
     NMCC=  13   NAOS=   0   NFZV=   0
                 NBOS=   0
                 NALP=   0
                 NVAL=   1

 THE MAXIMUM ELECTRON EXCITATION WILL BE   2

 SYMMETRIES FOR THE  13 CORE,   2 ACTIVE,   0 EXTERNAL MO-S ARE
     CORE= A     A     A     A     A     A     A     A     A     A   
           A     A     A   
   ACTIVE= A     A   
           DOC   VAL 

 MOLECULAR CHARGE          =    1
 NUMBER OF ALPHA ELECTRONS =   14
 NUMBER OF  BETA ELECTRONS =   14

 THE ELECTRONIC STATE IS  1-A   

 THE DISTINCT ROW TABLE HAS         5 ROWS.
  THE WAVEFUNCTION CONTAINS         3 WALKS (CSF-S).


          DETERMINANT CONTRIBUTION TO CSF'S (BETA IS MINUS)
          -------------------------------------------------
 CASE VECTOR =       1
 14

 FOR MS=S-0
 CSF      1: C(  1)= 1.000000 :   14-14
 CASE VECTOR =       2
 23

 FOR MS=S-0
 CSF      2: C(  1)=-0.707107 :  -15 14
             C(  2)= 0.707107 :   15-14
 CASE VECTOR =       3
 41

 FOR MS=S-0
 CSF      3: C(  1)= 1.000000 :   15-15

 TOTAL NUMBER OF INTEGRALS =          9
 NUMBER OF INTEGRALS/GROUP =          9
 NUMBER OF INTEGRAL GROUPS =          1
 MAXIMUM RECORD SIZES ARE     200 FOR UNIT 11      22 FOR UNIT 12
                            30001 FOR UNIT 15   30001 FOR UNIT 16
 ...... END OF -DRT- GENERATION ...... 
 STEP CPU TIME =     0.00 TOTAL CPU TIME =       30.1 (    0.5 MIN)
 TOTAL WALL CLOCK TIME=       32.0 SECONDS, CPU UTILIZATION IS  93.94%
 OPENING FILE DAFL30 WITH      81 LOGICAL RECORDS OF   33489 WORDS
 WITH A MAXIMUM OF        1377 PHYSICAL RECORDS OF    2048 WORDS

          ------------------------------
          CASSCF INTEGRAL TRANSFORMATION
          ------------------------------
 AO INTEGRALS WILL BE READ IN FROM DISK...
 MEMORY WHICH WOULD BE NEEDED FOR SINGLE PASS TRANSFORMATION =    6360337

 ----- CHOOSING THREE STEPS TRANSFORMATION -----
 NUMBER OF WORDS USED      =     975106
 NUMBER OF WORDS AVAILABLE =    1000000
 NUMBER OF PASSES          =          8
 PASS #   1 COMPLETED IN         1.0 SECONDS.
 PASS #   2 COMPLETED IN         0.6 SECONDS.
 PASS #   3 COMPLETED IN         0.6 SECONDS.
 PASS #   4 COMPLETED IN         0.6 SECONDS.
 PASS #   5 COMPLETED IN         0.6 SECONDS.
 PASS #   6 COMPLETED IN         0.6 SECONDS.
 PASS #   7 COMPLETED IN         0.5 SECONDS.
 PASS #   8 COMPLETED IN         0.5 SECONDS.

 ----- NUCLEAR REPULSION ENERGY =     91.89591552
 ----- FROZEN CORE ENERGY       =   -130.43529092

 ... SYMMETRY ...           CPU =    0.01
 ... (PQ|RS) -> (PQ|KL) ... CPU =    4.97
 ... (PQ|KL) -> (IJ|KL) ... CPU =    0.00

 NUMBER OF (PQ|KL) INTEGRALS WRITTEN      30276
 NUMBER OF (IJ|KL) INTEGRALS WRITTEN          6
 ..... END OF CAS INTEGRAL TRANSFORMATION .....
 STEP CPU TIME =     4.98 TOTAL CPU TIME =       35.0 (    0.6 MIN)
 TOTAL WALL CLOCK TIME=       36.0 SECONDS, CPU UTILIZATION IS  97.33%

          ------------------------
          GUGA-CI INTEGRAL SORTING
          ------------------------

    630017 WORDS NEEDED TO SORT              9 GUGA INTEGRALS IN MEMORY
   1000000 WORDS ARE AVAILABLE
 CHOOSING IN-MEMORY SORTING...
 IN CORE ALGORITHM SORTED              3 NON-ZERO 1E- INTEGRALS
 IN CORE ALGORITHM SORTED              6 NON-ZERO 2E- INTEGRALS
 ...... END OF INTEGRAL SORTING ...... 
 STEP CPU TIME =     0.01 TOTAL CPU TIME =       35.0 (    0.6 MIN)
 TOTAL WALL CLOCK TIME=       36.0 SECONDS, CPU UTILIZATION IS  97.36%

 -------------------------     ---------------------------------------
 ENERGY MATRIX CALCULATION     WRITTEN BY B.R.BROOKS,W.D.LAIDIG,P.SAXE
 -------------------------     ---------------------------------------

 COMPUTING THE HAMILTONIAN FOR THE         3 CSF-S...

           8 IS THE TOTAL NUMBER OF GENERATED LOOPS
           8 WERE CREATED BY THE LOOP-DRIVEN ALGORITHM
           0 WERE CREATED IMPLICITLY

           6 IS THE TOTAL NUMBER OF PROCESSED LOOPS
           5     DIAGONAL LOOPS ARE STORED ON WORK15 IN     1 BUFFERS OF  10000 ELEMENTS.
           1 OFF DIAGONAL LOOPS ARE STORED ON WORK16 IN     1 BUFFERS OF  10000 ELEMENTS.
 ...... END OF ENERGY MATRIX CALCULATION ...... 
 STEP CPU TIME =     0.00 TOTAL CPU TIME =       35.0 (    0.6 MIN)
 TOTAL WALL CLOCK TIME=       36.0 SECONDS, CPU UTILIZATION IS  97.36%

          -----------------------------------------
          DAVIDSON METHOD CI-MATRIX DIAGONALIZATION
                   WRITTEN BY STEVE ELBERT
          -----------------------------------------
 NUMBER OF STATES REQUESTED =     2
 MAX. NUMB. OF EXPAN. VEC   =    30
 MAX. NUMB. IMPROVED STATES =     2
 MAX. NUMB. OF ITERATIONS   =    50
 CONVERGENCE CRITERION      =    1.0E-05

 CHOOSING TO SOLVE SECULAR EQUATION IN MEMORY
 NUMBER OF WORDS AVAILABLE =    1000000
 NUMBER OF WORDS USED      =      31011
 ENERGY MATRIX BUFFER SIZE =      10000
 SOLUTION FOUND WITH DIRECT METHOD

 STATE #    1  ENERGY =     -39.907571819

      CSF      COEF    OCCUPANCY (IGNORING CORE)
      ---      ----    --------- --------- -----
        1    0.994038  20
        3   -0.109032  02

 STATE #    2  ENERGY =     -39.646695041

      CSF      COEF    OCCUPANCY (IGNORING CORE)
      ---      ----    --------- --------- -----
        2    1.000000  11

 RENORMALIZED DAVIDSON CORRECTION FOR     1-REFERENCE CI.
 C0SQ= 0.988112 EREF=      -39.901692 E-E(REF)=   0.005880 E(Q)=   0.000071
 GIVES A E(SD+Q) ESTIMATE OF      -39.9076425565
 ...... END OF CI-MATRIX DIAGONALIZATION ......
 STEP CPU TIME =     0.00 TOTAL CPU TIME =       35.0 (    0.6 MIN)
 TOTAL WALL CLOCK TIME=       36.0 SECONDS, CPU UTILIZATION IS  97.36%

          -------------------------------------
          2-PARTICLE DENSITY MATRIX CALCULATION
          -------------------------------------
 2 BODY DENSITY IS AN AVERAGE OF  2 STATE(S).
   STATE    WEIGHT          ENERGY
     1    0.500000      -39.9075718192
     2    0.500000      -39.6466950415
            8 -DM2- LOOPS WERE GENERATED
            8 WERE CREATED BY THE LOOP-DRIVEN ALGORITHM
            0 WERE CREATED IMPLICITLY
          1 RECORDS OF LENGTH600000 WRITTEN TO FILE 15
 ...... END OF 2-PARTICLE DENSITY MATRIX CALCULATION ......
 STEP CPU TIME =     0.00 TOTAL CPU TIME =       35.0 (    0.6 MIN)
 TOTAL WALL CLOCK TIME=       36.0 SECONDS, CPU UTILIZATION IS  97.36%

          ----------------------------------
          2-PARTICLE DENSITY MATRIX LABELING
          ----------------------------------
     646518 WORDS NEEDED TO LABEL DM2 MATRIX
          1 RECORDS OF LENGTH600000  READ FROM FILE 15
          1 RECORDS OF LENGTH 15000 WRITTEN TO FILE 16
 ...... END OF 2-PARTICLE DENSITY MATRIX LABELING ......
 STEP CPU TIME =     0.00 TOTAL CPU TIME =       35.0 (    0.6 MIN)
 TOTAL WALL CLOCK TIME=       36.0 SECONDS, CPU UTILIZATION IS  97.36%

          --------------
          -DM2- ORDERING
          --------------
      30010 WORDS NEEDED (   1000000 AVAILABLE) TO ORDER DM2 IN MEMORY
 CHOOSING IN MEMORY ORDERING...
                               1 RECORDS OF LENGTH 15000  READ FROM FILE 16
          4 DM2 VALUES IN      1 RECORDS OF LENGTH 15000 WRITTEN TO FILE 15
 ...... END OF -DM2- ORDERING ...... 
 STEP CPU TIME =     0.00 TOTAL CPU TIME =       35.0 (    0.6 MIN)
 TOTAL WALL CLOCK TIME=       36.0 SECONDS, CPU UTILIZATION IS  97.36%

          --------------------------------------
          APPROXIMATE SECOND-ORDER MCSCF PROGRAM
          --------------------------------------
          PROGRAM WRITTEN BY G.CHABAN, A.MARQUEZ, AND M.DUPUIS

  NUMBER OF WORDS NEEDED     =     266362
  NUMBER AVAILABLE           =    1000000

 ----- GAMMA(IJKL)*(PQ|KL) PRODUCTS ----- CPU TIME =      0.000
 ----- ORBITAL SYMMETRY             ----- CPU TIME =      0.000
 ----- FOCK OPERATORS CONSTRUCTION  ----- CPU TIME =      0.760
 ----- WARNING : CORE-ACTIVE GAP    =    0.42239
 ----- WARNING : ACTIVE-VIRTUAL GAP =    0.42665
     MICIT =   1 ASYMM =    0.030770 ROTMAX =    0.014499
 ----- EFFECTIVE FOCK + ROTATE ORBS ----- CPU TIME =      0.030
     MICIT =   2 ASYMM =    0.022207 ROTMAX =    0.003482
     MICIT =   3 ASYMM =    0.020452 ROTMAX =    0.005383
     MICIT =   4 ASYMM =    0.017731 ROTMAX =    0.005674
     MICIT =   5 ASYMM =    0.014848 ROTMAX =    0.004968
 ..... DONE WITH CASSCF ORBITAL UPDATE .....
 STEP CPU TIME =     0.91 TOTAL CPU TIME =       36.0 (    0.6 MIN)
 TOTAL WALL CLOCK TIME=       36.0 SECONDS, CPU UTILIZATION IS  99.89%

 ITER     TOTAL ENERGY      DEL(E)  LAGRANGIAN ASYMMETRY   SQCDF  MICIT   DAMP
   1      -39.777133430 -0.777133430  0.030770   36   14 1.450E-02  5   0.0000
       ----------START APPROXIMATE SECOND ORDER MCSCF----------
   2      -39.784154028 -0.007020598  0.008055   15   13 2.507E-03  1   0.0000
   3      -39.785179916 -0.001025888  0.004644   36   14 1.084E-03  1   0.0000
   4      -39.785428062 -0.000248145  0.001602   15   13 7.996E-05  1   0.0000
   5      -39.785456823 -0.000028761  0.001514   15   13 3.075E-05  1   0.0000
   6      -39.785465165 -0.000008343  0.000274   26   13 4.440E-06  1   0.0000
   7      -39.785466509 -0.000001343  0.000142   26   13 3.099E-06  1   0.0000
   8      -39.785466911 -0.000000403  0.000031   26   15 1.629E-07  1   0.0000
   9      -39.785466941 -0.000000029  0.000017   37   13 2.497E-08  1   0.0000
  10      -39.785466945 -0.000000004  0.000005   36   12 4.272E-10  1   0.0000

          --------------------
          LAGRANGIAN CONVERGED
          --------------------

 FINAL MCSCF ENERGY IS      -39.7854669452 AFTER  10 ITERATIONS

 -MCCI- BASED ON OPTIMIZED ORBITALS
 ----------------------------------

 PLEASE NOTE: IF THE ACTIVE ORBITALS ARE CANONICALIZED BELOW,
 THE FOLLOWING CI EXPANSION COEFFICIENTS AND THE DENSITY DO NOT
 CORRESPOND TO THE PRINTED ORBITALS.  THE PRINTED EXPANSIONS MATCH
 THE ORBITALS USED DURING THE LAST ITERATION.  IF YOU WISH TO SEE
 CI EXPANSIONS BASED ON THE CANONICAL (OR NATURAL) ORBITALS, YOU
 MUST RUN A CI CALCULATION WITH THAT ORBITAL CHOICE READ IN $VEC.

 STATE #    1  ENERGY =     -39.896290076

      CSF      COEF    OCCUPANCY (IGNORING CORE)
      ---      ----    --------- --------- -----
        1    0.995629  20
        2    0.000000  11
        3   -0.093396  02

 STATE #    2  ENERGY =     -39.674643815

      CSF      COEF    OCCUPANCY (IGNORING CORE)
      ---      ----    --------- --------- -----
        1    0.000000  20
        2    1.000000  11
        3    0.000000  02

 DENSITY MATRIX OVER ACTIVE MO-S

             1           2

    1    1.4912771
    2    0.0000000   0.5087229

 FORMING THE "STANDARD FOCK OPERATOR" USING INTEGRALS FROM DISK...
    13 FILLED,    2 ACTIVE, AND  158 VIRTUAL ORBITALS  WILL BE CANONICALIZED

          ----------------------
          MCSCF NATURAL ORBITALS
          ----------------------

                      1          2          3          4          5

                   -1.4543    -1.4440    -1.2498    -1.0868    -1.0098

    1  H  1  S    0.042848   0.000000   0.126489   0.000000   0.204821
    2  H  1  S   -0.010455   0.000000  -0.028607   0.000000   0.078525
    3  H  1  X    0.000000   0.000000   0.000000   0.000000   0.000000
    4  H  1  Y    0.000000  -0.000748   0.000000   0.005135   0.000000
    5  H  1  Z    0.008151   0.000000   0.017382   0.000000   0.018061
    6  H  1  S   -0.025038   0.000000  -0.023372   0.000000  -0.026226
    7  H  1  X    0.000000   0.000000   0.000000   0.000000   0.000000
    8  H  1  Y    0.000000  -0.000006   0.000000   0.010757   0.000000
    9  H  1  Z   -0.002375   0.000000   0.004675   0.000000  -0.017281
   10  H  2  S    0.056394   0.047679   0.078648  -0.147240  -0.198510
   11  H  2  S   -0.068106  -0.033265  -0.056143  -0.007192  -0.075595
   12  H  2  X    0.000000   0.000000   0.000000   0.000000   0.000000
   13  H  2  Y   -0.001581  -0.001069   0.003632  -0.000939   0.002823
   14  H  2  Z   -0.008400  -0.007067  -0.008993   0.015112   0.017212
   15  H  2  S    0.016442  -0.022348   0.030845   0.017764   0.013654
   16  H  2  X    0.000000   0.000000   0.000000   0.000000   0.000000
   17  H  2  Y   -0.005260  -0.011266   0.013258  -0.019137   0.005315
   18  H  2  Z   -0.006056  -0.005097  -0.005561  -0.004630  -0.018679
   19  H  3  S    0.056394  -0.047679   0.078648   0.147240  -0.198510
   20  H  3  S   -0.068106   0.033265  -0.056143   0.007192  -0.075595
   21  H  3  X    0.000000   0.000000   0.000000   0.000000   0.000000
   22  H  3  Y    0.001581  -0.001069  -0.003632  -0.000939  -0.002823
   23  H  3  Z   -0.008400   0.007067  -0.008993  -0.015112   0.017212
   24  H  3  S    0.016442   0.022348   0.030845  -0.017764   0.013654
   25  H  3  X    0.000000   0.000000   0.000000   0.000000   0.000000
   26  H  3  Y    0.005260  -0.011266  -0.013258  -0.019137  -0.005315
   27  H  3  Z   -0.006056   0.005097  -0.005561   0.004630  -0.018679
   28  H  4  S    0.121901   0.131135  -0.091902   0.159615   0.209222
   29  H  4  S   -0.008601  -0.002981   0.002912  -0.014035  -0.013787
   30  H  4  X    0.000000   0.000000   0.000000   0.000000   0.000000
   31  H  4  Y    0.003880   0.004421  -0.001239  -0.002566   0.000656
   32  H  4  Z    0.017769   0.018655  -0.009834   0.015552   0.018440
   33  H  4  S   -0.005309  -0.005464  -0.004870   0.004261   0.007509
   34  H  4  X    0.000000   0.000000   0.000000   0.000000   0.000000
   35  H  4  Y    0.007614   0.005951   0.000744  -0.007234  -0.008254
   36  H  4  Z   -0.000177  -0.005801   0.008641  -0.002701  -0.004197
   37  H  5  S    0.121901  -0.131135  -0.091902  -0.159615   0.209222
   38  H  5  S   -0.008601   0.002981   0.002912   0.014035  -0.013787
   39  H  5  X    0.000000   0.000000   0.000000   0.000000   0.000000
   40  H  5  Y   -0.003880   0.004421   0.001239  -0.002566  -0.000656
   41  H  5  Z    0.017769  -0.018655  -0.009834  -0.015552   0.018440
   42  H  5  S   -0.005309   0.005464  -0.004870  -0.004261   0.007509
   43  H  5  X    0.000000   0.000000   0.000000   0.000000   0.000000
   44  H  5  Y   -0.007614   0.005951  -0.000744  -0.007234   0.008254
   45  H  5  Z   -0.000177   0.005801   0.008641   0.002701  -0.004197
   46  H  6  S    0.118337   0.130999  -0.116261   0.167589   0.010204
   47  H  6  S    0.021790   0.011549   0.018571  -0.036072  -0.003206
   48  H  6  X    0.000000   0.000000   0.000000   0.000000   0.000000
   49  H  6  Y    0.015470   0.016486  -0.010671   0.010196  -0.003405
   50  H  6  Z   -0.008865  -0.010023   0.008547  -0.012493  -0.005121
   51  H  6  S   -0.000512  -0.005722  -0.000019   0.003904  -0.004231
   52  H  6  X    0.000000   0.000000   0.000000   0.000000   0.000000
   53  H  6  Y   -0.011466  -0.008161  -0.003302   0.003506  -0.005570
   54  H  6  Z    0.009768   0.009533   0.002041  -0.004433  -0.004840
   55  H  7  S    0.118337  -0.130999  -0.116261  -0.167589   0.010204
   56  H  7  S    0.021790  -0.011549   0.018571   0.036072  -0.003206
   57  H  7  X    0.000000   0.000000   0.000000   0.000000   0.000000
   58  H  7  Y   -0.015470   0.016486   0.010671   0.010196   0.003405
   59  H  7  Z   -0.008865   0.010023   0.008547   0.012493  -0.005121
   60  H  7  S   -0.000512   0.005722  -0.000019  -0.003904  -0.004231
   61  H  7  X    0.000000   0.000000   0.000000   0.000000   0.000000
   62  H  7  Y    0.011466  -0.008161   0.003302   0.003506   0.005570
   63  H  7  Z    0.009768  -0.009533   0.002041   0.004433  -0.004840
   64  C  8  S    0.206158   0.000000   0.629860   0.000000   0.370980
   65  C  8  S    0.309592   0.000000  -0.406738   0.000000  -0.245240
   66  C  8  X    0.000000   0.000000   0.000000   0.000000   0.000000
   67  C  8  Y    0.000000   0.084095   0.000000  -0.293973   0.000000
   68  C  8  Z   -0.035444   0.000000  -0.118531   0.000000   0.139615
   69  C  8  X    0.000000   0.000000   0.000000   0.000000   0.000000
   70  C  8  Y    0.000000  -0.115560   0.000000  -0.134018   0.000000
   71  C  8  Z   -0.193780   0.000000   0.062645   0.000000  -0.057233
   72  C  8 XX   -0.006183   0.000000  -0.014267   0.000000  -0.006426
   73  C  8 YY    0.014407   0.000000   0.011254   0.000000  -0.001379
   74  C  8 ZZ   -0.008224   0.000000   0.003012   0.000000   0.007805
   75  C  8 XY    0.000000   0.000000   0.000000   0.000000   0.000000
   76  C  8 XZ    0.000000   0.000000   0.000000   0.000000   0.000000
   77  C  8 YZ    0.000000  -0.006257   0.000000   0.025889   0.000000
   78  C  8  S   -0.366256   0.000000  -0.463669   0.000000  -0.330591
   79  C  8  X    0.000000   0.000000   0.000000   0.000000   0.000000
   80  C  8  Y    0.000000   0.077873   0.000000  -0.117540   0.000000
   81  C  8  Z    0.067332   0.000000   0.079397   0.000000   0.051006
   82  C  8 XX    0.001374   0.000000   0.056191   0.000000   0.035082
   83  C  8 YY   -0.064226   0.000000  -0.107957   0.000000  -0.007424
   84  C  8 ZZ    0.062853   0.000000   0.051765   0.000000  -0.027658
   85  C  8 XY    0.000000   0.000000   0.000000   0.000000   0.000000
   86  C  8 XZ    0.000000   0.000000   0.000000   0.000000   0.000000
   87  C  8 YZ    0.000000   0.012998   0.000000   0.014799   0.000000
   88  C  9  S    0.343176   0.305768   0.316165  -0.499452  -0.272664
   89  C  9  S   -0.121601   0.049175   0.112563   0.427793   0.203641
   90  C  9  X    0.000000   0.000000   0.000000   0.000000   0.000000
   91  C  9  Y    0.097452   0.135181  -0.234816   0.036571  -0.180756
   92  C  9  Z    0.071603   0.065934   0.038527  -0.013169   0.204504
   93  C  9  X    0.000000   0.000000   0.000000   0.000000   0.000000
   94  C  9  Y    0.148011  -0.027087   0.035612  -0.092196   0.030307
   95  C  9  Z    0.006595   0.014636   0.058769   0.075175  -0.093208
   96  C  9 XX   -0.012411  -0.011235  -0.008017   0.009527   0.005955
   97  C  9 YY    0.018251   0.014419   0.006601  -0.000193  -0.003298
   98  C  9 ZZ   -0.005840  -0.003184   0.001416  -0.009334  -0.002658
   99  C  9 XY    0.000000   0.000000   0.000000   0.000000   0.000000
  100  C  9 XZ    0.000000   0.000000   0.000000   0.000000   0.000000
  101  C  9 YZ    0.010017   0.011445  -0.018882   0.004904  -0.010808
  102  C  9  S    0.226781  -0.126895   0.169233   0.247153   0.173823
  103  C  9  X    0.000000   0.000000   0.000000   0.000000   0.000000
  104  C  9  Y   -0.026564   0.049330  -0.050055  -0.017731  -0.033448
  105  C  9  Z    0.039374  -0.020030   0.046733   0.045673   0.026408
  106  C  9 XX   -0.002429  -0.000284  -0.007822  -0.041387  -0.016144
  107  C  9 YY   -0.057095  -0.021884  -0.034625   0.042781  -0.010986
  108  C  9 ZZ    0.059524   0.022168   0.042447  -0.001394   0.027130
  109  C  9 XY    0.000000   0.000000   0.000000   0.000000   0.000000
  110  C  9 XZ    0.000000   0.000000   0.000000   0.000000   0.000000
  111  C  9 YZ    0.026192  -0.017415   0.015392  -0.033903   0.007192
  112  C 10  S    0.343176  -0.305768   0.316165   0.499452  -0.272664
  113  C 10  S   -0.121601  -0.049175   0.112563  -0.427793   0.203641
  114  C 10  X    0.000000   0.000000   0.000000   0.000000   0.000000
  115  C 10  Y   -0.097452   0.135181   0.234816   0.036571   0.180756
  116  C 10  Z    0.071603  -0.065934   0.038527   0.013169   0.204504
  117  C 10  X    0.000000   0.000000   0.000000   0.000000   0.000000
  118  C 10  Y   -0.148011  -0.027087  -0.035612  -0.092196  -0.030307
  119  C 10  Z    0.006595  -0.014636   0.058769  -0.075175  -0.093208
  120  C 10 XX   -0.012411   0.011235  -0.008017  -0.009527   0.005955
  121  C 10 YY    0.018251  -0.014419   0.006601   0.000193  -0.003298
  122  C 10 ZZ   -0.005840   0.003184   0.001416   0.009334  -0.002658
  123  C 10 XY    0.000000   0.000000   0.000000   0.000000   0.000000
  124  C 10 XZ    0.000000   0.000000   0.000000   0.000000   0.000000
  125  C 10 YZ   -0.010017   0.011445   0.018882   0.004904   0.010808
  126  C 10  S    0.226781   0.126895   0.169233  -0.247152   0.173823
  127  C 10  X    0.000000   0.000000   0.000000   0.000000   0.000000
  128  C 10  Y    0.026564   0.049330   0.050055  -0.017730   0.033448
  129  C 10  Z    0.039375   0.020030   0.046734  -0.045673   0.026408
  130  C 10 XX   -0.002429   0.000284  -0.007822   0.041387  -0.016144
  131  C 10 YY   -0.057095   0.021884  -0.034625  -0.042781  -0.010986
  132  C 10 ZZ    0.059524  -0.022168   0.042447   0.001394   0.027130
  133  C 10 XY    0.000000   0.000000   0.000000   0.000000   0.000000
  134  C 10 XZ    0.000000   0.000000   0.000000   0.000000   0.000000
  135  C 10 YZ   -0.026192  -0.017415  -0.015392  -0.033903  -0.007192
  136  N 11  S    0.518373   0.551933  -0.276016   0.229865   0.083910
  137  N 11  S   -0.260007  -0.207757   0.059883  -0.078290  -0.015555
  138  N 11  X    0.000000   0.000000   0.000000   0.000000   0.000000
  139  N 11  Y   -0.070975  -0.067697  -0.080301   0.274587   0.155009
  140  N 11  Z   -0.027429  -0.028878  -0.006872   0.108557   0.276249
  141  N 11  X    0.000000   0.000000   0.000000   0.000000   0.000000
  142  N 11  Y    0.050249   0.030166   0.024395  -0.037429  -0.030848
  143  N 11  Z    0.010844   0.011543  -0.012230  -0.015140  -0.054512
  144  N 11 XX   -0.009653  -0.010442   0.004153  -0.002071  -0.000776
  145  N 11 YY    0.009365   0.009349   0.002394  -0.007973  -0.005978
  146  N 11 ZZ    0.000288   0.001092  -0.006547   0.010044   0.006754
  147  N 11 XY    0.000000   0.000000   0.000000   0.000000   0.000000
  148  N 11 XZ    0.000000   0.000000   0.000000   0.000000   0.000000
  149  N 11 YZ    0.003925   0.004769   0.001267  -0.010725  -0.008367
  150  N 11  S   -0.119032  -0.088157   0.029363  -0.071448  -0.036645
  151  N 11  X    0.000000   0.000000   0.000000   0.000000   0.000000
  152  N 11  Y    0.026593   0.011605   0.016863  -0.012117   0.009498
  153  N 11  Z   -0.005998   0.000096  -0.018089   0.003487  -0.026937
  154  N 11 XX    0.016182   0.018601  -0.008520   0.004733  -0.001217
  155  N 11 YY   -0.017724  -0.017530   0.001134   0.004995   0.011478
  156  N 11 ZZ    0.001542  -0.001071   0.007386  -0.009728  -0.010262
  157  N 11 XY    0.000000   0.000000   0.000000   0.000000   0.000000
  158  N 11 XZ    0.000000   0.000000   0.000000   0.000000   0.000000
  159  N 11 YZ   -0.004112  -0.005346  -0.001394   0.005162   0.001782
  160  N 12  S    0.518373  -0.551933  -0.276016  -0.229865   0.083910
  161  N 12  S   -0.260007   0.207757   0.059883   0.078290  -0.015555
  162  N 12  X    0.000000   0.000000   0.000000   0.000000   0.000000
  163  N 12  Y    0.070975  -0.067697   0.080301   0.274587  -0.155009
  164  N 12  Z   -0.027429   0.028878  -0.006872  -0.108557   0.276249
  165  N 12  X    0.000000   0.000000   0.000000   0.000000   0.000000
  166  N 12  Y   -0.050249   0.030166  -0.024395  -0.037429   0.030848
  167  N 12  Z    0.010844  -0.011543  -0.012230   0.015140  -0.054512
  168  N 12 XX   -0.009653   0.010442   0.004153   0.002071  -0.000776
  169  N 12 YY    0.009365  -0.009349   0.002394   0.007973  -0.005978
  170  N 12 ZZ    0.000288  -0.001092  -0.006547  -0.010044   0.006754
  171  N 12 XY    0.000000   0.000000   0.000000   0.000000   0.000000
  172  N 12 XZ    0.000000   0.000000   0.000000   0.000000   0.000000
  173  N 12 YZ   -0.003925   0.004769  -0.001267  -0.010725   0.008367
  174  N 12  S   -0.119032   0.088157   0.029363   0.071448  -0.036645
  175  N 12  X    0.000000   0.000000   0.000000   0.000000   0.000000
  176  N 12  Y   -0.026593   0.011605  -0.016863  -0.012117  -0.009498
  177  N 12  Z   -0.005998  -0.000096  -0.018089  -0.003487  -0.026938
  178  N 12 XX    0.016182  -0.018601  -0.008520  -0.004733  -0.001217
  179  N 12 YY   -0.017724   0.017530   0.001134  -0.004995   0.011478
  180  N 12 ZZ    0.001542   0.001071   0.007386   0.009728  -0.010262
  181  N 12 XY    0.000000   0.000000   0.000000   0.000000   0.000000
  182  N 12 XZ    0.000000   0.000000   0.000000   0.000000   0.000000
  183  N 12 YZ    0.004112  -0.005346   0.001394   0.005162  -0.001782

                      6          7          8          9         10

                   -0.9458    -0.9302    -0.8695    -0.8368    -0.7706

    1  H  1  S    0.000000  -0.090184  -0.302553   0.000000   0.000000
    2  H  1  S    0.000000  -0.078535  -0.045113   0.000000   0.000000
    3  H  1  X    0.000000   0.000000   0.000000   0.000000   0.000000
    4  H  1  Y   -0.004827   0.000000   0.000000   0.007170  -0.006655
    5  H  1  Z    0.000000  -0.007181  -0.023385   0.000000   0.000000
    6  H  1  S    0.000000  -0.016947  -0.033016   0.000000   0.000000
    7  H  1  X    0.000000   0.000000   0.000000   0.000000   0.000000
    8  H  1  Y   -0.023357   0.000000   0.000000   0.043784  -0.027692
    9  H  1  Z    0.000000   0.017764   0.016961   0.000000   0.000000
   10  H  2  S   -0.142911   0.114085   0.101778  -0.180433  -0.269445
   11  H  2  S   -0.020613   0.052987   0.060673  -0.072094  -0.066269
   12  H  2  X    0.000000   0.000000   0.000000   0.000000   0.000000
   13  H  2  Y    0.002080   0.005365   0.001538  -0.006319   0.004125
   14  H  2  Z    0.011084  -0.007686  -0.007085   0.012836   0.015689
   15  H  2  S   -0.000289   0.012477   0.012649   0.003557  -0.014853
   16  H  2  X    0.000000   0.000000   0.000000   0.000000   0.000000
   17  H  2  Y    0.015602   0.015160   0.007928  -0.029512   0.020861
   18  H  2  Z   -0.009398   0.014819   0.010715  -0.020949  -0.015436
   19  H  3  S    0.142911   0.114085   0.101778   0.180433   0.269445
   20  H  3  S    0.020613   0.052987   0.060673   0.072094   0.066269
   21  H  3  X    0.000000   0.000000   0.000000   0.000000   0.000000
   22  H  3  Y    0.002080  -0.005365  -0.001538  -0.006319   0.004125
   23  H  3  Z   -0.011084  -0.007686  -0.007085  -0.012836  -0.015689
   24  H  3  S    0.000289   0.012477   0.012649  -0.003557   0.014853
   25  H  3  X    0.000000   0.000000   0.000000   0.000000   0.000000
   26  H  3  Y    0.015602  -0.015161  -0.007928  -0.029512   0.020861
   27  H  3  Z    0.009398   0.014819   0.010715   0.020949   0.015436
   28  H  4  S    0.236460   0.018051   0.252809  -0.107280  -0.187958
   29  H  4  S   -0.017239   0.004264  -0.000317   0.000136  -0.011902
   30  H  4  X    0.000000   0.000000   0.000000   0.000000   0.000000
   31  H  4  Y    0.007515  -0.009600   0.005343   0.006327  -0.004645
   32  H  4  Z    0.018561   0.002503   0.018182  -0.007697  -0.010697
   33  H  4  S    0.008864  -0.005556   0.004035   0.006492  -0.001644
   34  H  4  X    0.000000   0.000000   0.000000   0.000000   0.000000
   35  H  4  Y   -0.000051  -0.013437  -0.001985   0.018092   0.003030
   36  H  4  Z   -0.003997  -0.001289  -0.010539   0.002354   0.009849
   37  H  5  S   -0.236460   0.018051   0.252809   0.107280   0.187958
   38  H  5  S    0.017239   0.004264  -0.000317  -0.000137   0.011902
   39  H  5  X    0.000000   0.000000   0.000000   0.000000   0.000000
   40  H  5  Y    0.007515   0.009600  -0.005343   0.006327  -0.004645
   41  H  5  Z   -0.018561   0.002503   0.018182   0.007697   0.010697
   42  H  5  S   -0.008864  -0.005556   0.004035  -0.006492   0.001644
   43  H  5  X    0.000000   0.000000   0.000000   0.000000   0.000000
   44  H  5  Y   -0.000051   0.013437   0.001985   0.018092   0.003030
   45  H  5  Z    0.003997  -0.001289  -0.010539  -0.002354  -0.009849
   46  H  6  S   -0.216876   0.265112  -0.200972  -0.138338   0.187089
   47  H  6  S    0.029703  -0.011234   0.016439  -0.026212   0.016008
   48  H  6  X    0.000000   0.000000   0.000000   0.000000   0.000000
   49  H  6  Y   -0.017550   0.014505  -0.015201  -0.003339   0.011237
   50  H  6  Z    0.005969  -0.015292   0.003761   0.011273  -0.003700
   51  H  6  S   -0.013094   0.008901  -0.002632  -0.000853  -0.009083
   52  H  6  X    0.000000   0.000000   0.000000   0.000000   0.000000
   53  H  6  Y   -0.005933  -0.014188  -0.001299   0.025055  -0.010372
   54  H  6  Z   -0.004203  -0.001961  -0.007524   0.003408   0.006621
   55  H  7  S    0.216876   0.265112  -0.200972   0.138338  -0.187089
   56  H  7  S   -0.029703  -0.011233   0.016439   0.026212  -0.016008
   57  H  7  X    0.000000   0.000000   0.000000   0.000000   0.000000
   58  H  7  Y   -0.017550  -0.014505   0.015201  -0.003339   0.011237
   59  H  7  Z   -0.005969  -0.015292   0.003761  -0.011273   0.003700
   60  H  7  S    0.013094   0.008901  -0.002632   0.000853   0.009083
   61  H  7  X    0.000000   0.000000   0.000000   0.000000   0.000000
   62  H  7  Y   -0.005933   0.014188   0.001299   0.025055  -0.010372
   63  H  7  Z    0.004203  -0.001961  -0.007524  -0.003408  -0.006621
   64  C  8  S    0.000000   0.080769  -0.235944   0.000000   0.000000
   65  C  8  S    0.000000   0.060522   0.643918   0.000000   0.000000
   66  C  8  X    0.000000   0.000000   0.000000   0.000000   0.000000
   67  C  8  Y    0.237755   0.000000   0.000000  -0.346502   0.416640
   68  C  8  Z    0.000000  -0.204272  -0.345027   0.000000   0.000000
   69  C  8  X    0.000000   0.000000   0.000000   0.000000   0.000000
   70  C  8  Y    0.046659   0.000000   0.000000   0.013000  -0.318613
   71  C  8  Z    0.000000   0.113324   0.048496   0.000000   0.000000
   72  C  8 XX    0.000000  -0.000306   0.001744   0.000000   0.000000
   73  C  8 YY    0.000000  -0.007816   0.006428   0.000000   0.000000
   74  C  8 ZZ    0.000000   0.008122  -0.008172   0.000000   0.000000
   75  C  8 XY    0.000000   0.000000   0.000000   0.000000   0.000000
   76  C  8 XZ    0.000000   0.000000   0.000000   0.000000   0.000000
   77  C  8 YZ   -0.011708   0.000000   0.000000   0.033767  -0.011557
   78  C  8  S    0.000000  -0.206454  -0.178593   0.000000   0.000001
   79  C  8  X    0.000000   0.000000   0.000000   0.000000   0.000000
   80  C  8  Y    0.077793   0.000000   0.000000  -0.065145   0.040949
   81  C  8  Z    0.000000   0.037739   0.063717   0.000000   0.000000
   82  C  8 XX    0.000000   0.002443  -0.036559   0.000000   0.000000
   83  C  8 YY    0.000000  -0.031898   0.066761   0.000000   0.000000
   84  C  8 ZZ    0.000000   0.029455  -0.030203   0.000000   0.000000
   85  C  8 XY    0.000000   0.000000   0.000000   0.000000   0.000000
   86  C  8 XZ    0.000000   0.000000   0.000000   0.000000   0.000000
   87  C  8 YZ    0.030111   0.000000   0.000000  -0.068954   0.090836
   88  C  9  S   -0.010935  -0.059571   0.100565  -0.153135  -0.005209
   89  C  9  S   -0.034541  -0.040480  -0.331244   0.199851   0.323828
   90  C  9  X    0.000000   0.000000   0.000000   0.000000   0.000000
   91  C  9  Y   -0.133935  -0.292549  -0.116328   0.432188  -0.166133
   92  C  9  Z    0.254910  -0.213551  -0.090511   0.171275   0.394115
   93  C  9  X    0.000000   0.000000   0.000000   0.000000   0.000000
   94  C  9  Y    0.083942   0.064792   0.150958  -0.056312  -0.081668
   95  C  9  Z   -0.141774   0.099082  -0.066452  -0.011082  -0.044020
   96  C  9 XX    0.001495   0.002132  -0.000567  -0.001790   0.001200
   97  C  9 YY   -0.005474  -0.005391  -0.008613   0.020645   0.015588
   98  C  9 ZZ    0.003980   0.003259   0.009180  -0.018854  -0.016788
   99  C  9 XY    0.000000   0.000000   0.000000   0.000000   0.000000
  100  C  9 XZ    0.000000   0.000000   0.000000   0.000000   0.000000
  101  C  9 YZ    0.000796  -0.019864   0.010046   0.025977  -0.019672
  102  C  9  S   -0.080109   0.083842   0.096560   0.082520  -0.109712
  103  C  9  X    0.000000   0.000000   0.000000   0.000000   0.000000
  104  C  9  Y   -0.013420  -0.015190  -0.023904   0.000675   0.049568
  105  C  9  Z   -0.021747   0.027214   0.020842   0.012674  -0.028749
  106  C  9 XX    0.008171   0.007143   0.021198  -0.039097  -0.010276
  107  C  9 YY    0.001221   0.005738   0.024980   0.016508  -0.005690
  108  C  9 ZZ   -0.009392  -0.012880  -0.046178   0.022589   0.015966
  109  C  9 XY    0.000000   0.000000   0.000000   0.000000   0.000000
  110  C  9 XZ    0.000000   0.000000   0.000000   0.000000   0.000000
  111  C  9 YZ    0.041813   0.019098   0.044104  -0.028670   0.014215
  112  C 10  S    0.010935  -0.059571   0.100565   0.153135   0.005209
  113  C 10  S    0.034541  -0.040481  -0.331244  -0.199851  -0.323827
  114  C 10  X    0.000000   0.000000   0.000000   0.000000   0.000000
  115  C 10  Y   -0.133935   0.292549   0.116328   0.432188  -0.166133
  116  C 10  Z   -0.254910  -0.213551  -0.090511  -0.171275  -0.394115
  117  C 10  X    0.000000   0.000000   0.000000   0.000000   0.000000
  118  C 10  Y    0.083942  -0.064792  -0.150958  -0.056312  -0.081668
  119  C 10  Z    0.141774   0.099082  -0.066452   0.011082   0.044020
  120  C 10 XX   -0.001495   0.002132  -0.000567   0.001790  -0.001200
  121  C 10 YY    0.005474  -0.005391  -0.008613  -0.020645  -0.015588
  122  C 10 ZZ   -0.003980   0.003259   0.009180   0.018854   0.016788
  123  C 10 XY    0.000000   0.000000   0.000000   0.000000   0.000000
  124  C 10 XZ    0.000000   0.000000   0.000000   0.000000   0.000000
  125  C 10 YZ    0.000796   0.019864  -0.010046   0.025977  -0.019672
  126  C 10  S    0.080109   0.083842   0.096560  -0.082520   0.109711
  127  C 10  X    0.000000   0.000000   0.000000   0.000000   0.000000
  128  C 10  Y   -0.013420   0.015189   0.023904   0.000675   0.049568
  129  C 10  Z    0.021747   0.027215   0.020842  -0.012674   0.028749
  130  C 10 XX   -0.008171   0.007143   0.021198   0.039097   0.010276
  131  C 10 YY   -0.001221   0.005737   0.024980  -0.016508   0.005690
  132  C 10 ZZ    0.009392  -0.012880  -0.046178  -0.022589  -0.015966
  133  C 10 XY    0.000000   0.000000   0.000000   0.000000   0.000000
  134  C 10 XZ    0.000000   0.000000   0.000000   0.000000   0.000000
  135  C 10 YZ    0.041813  -0.019098  -0.044104  -0.028670   0.014215
  136  N 11  S    0.002011   0.023917  -0.003301   0.074862   0.005026
  137  N 11  S   -0.030030  -0.009656  -0.040675  -0.071389  -0.004225
  138  N 11  X    0.000000   0.000000   0.000000   0.000000   0.000000
  139  N 11  Y   -0.143331   0.449379  -0.083239  -0.382158   0.108169
  140  N 11  Z    0.394647  -0.049948   0.390093  -0.137046  -0.262437
  141  N 11  X    0.000000   0.000000   0.000000   0.000000   0.000000
  142  N 11  Y    0.013868  -0.086841  -0.001972   0.103798  -0.011380
[...]
  169  N 12 YY    0.302796  -0.357791  -0.104249
  170  N 12 ZZ   -0.224085   0.415852   0.123503
  171  N 12 XY    0.000000   0.000000   0.000000
  172  N 12 XZ    0.000000   0.000000   0.000000
  173  N 12 YZ    0.254418  -0.472639   0.053514
  174  N 12  S    2.146303  -0.869272   4.045240
  175  N 12  X    0.000000   0.000000   0.000000
  176  N 12  Y    0.667101   0.110819   0.072472
  177  N 12  Z    0.311197   0.757937   0.152819
  178  N 12 XX   -0.334914  -0.062325  -0.720326
  179  N 12 YY    0.907790  -0.558609  -0.235250
  180  N 12 ZZ   -0.572876   0.620934   0.955576
  181  N 12 XY    0.000000   0.000000   0.000000
  182  N 12 XZ    0.000000   0.000000   0.000000
  183  N 12 YZ    0.586545   0.029133   1.441078
 .....DONE WITH MCSCF ITERATIONS.....
 STEP CPU TIME =    52.55 TOTAL CPU TIME =       88.5 (    1.5 MIN)
 TOTAL WALL CLOCK TIME=       90.0 SECONDS, CPU UTILIZATION IS  98.34%

     ----------------------------------------------------------------
     PROPERTY VALUES FOR THE MCSCF SELF-CONSISTENT FIELD WAVEFUNCTION
     ----------------------------------------------------------------

          -----------------
          ENERGY COMPONENTS
          -----------------

         WAVEFUNCTION NORMALIZATION =       1.0000000000

                ONE ELECTRON ENERGY =    -236.9733223384
                TWO ELECTRON ENERGY =     105.2919398779
           NUCLEAR REPULSION ENERGY =      91.8959155152
                                      ------------------
                       TOTAL ENERGY =     -39.7854669452

 ELECTRON-ELECTRON POTENTIAL ENERGY =     105.2919398779
  NUCLEUS-ELECTRON POTENTIAL ENERGY =    -268.0309484875
   NUCLEUS-NUCLEUS POTENTIAL ENERGY =      91.8959155152
                                      ------------------
             TOTAL POTENTIAL ENERGY =     -70.8430930944
               TOTAL KINETIC ENERGY =      31.0576261492
                 VIRIAL RATIO (V/T) =       2.2810208596

          ---------------------------------------
          MULLIKEN AND LOWDIN POPULATION ANALYSES
          ---------------------------------------

     MULLIKEN ATOMIC POPULATION IN EACH MOLECULAR ORBITAL

                      1          2          3          4          5

                  2.000000   2.000000   2.000000   2.000000   2.000000

    1            -0.006511   0.000193   0.060074  -0.002590   0.230533
    2            -0.002156  -0.009757   0.011937   0.097593   0.204229
    3            -0.002156  -0.009757   0.011937   0.097593   0.204230
    4             0.082882   0.104887   0.032818   0.075975   0.130470
    5             0.082883   0.104887   0.032818   0.075975   0.130470
    6             0.119633   0.122909   0.045446   0.075886  -0.001407
    7             0.119633   0.122909   0.045446   0.075886  -0.001407
    8             0.052560   0.025374   0.026965   0.491305   0.167709
    9             0.569773   0.373760   0.736040   0.196885   0.230122
   10             0.569773   0.373760   0.736039   0.196885   0.230122
   11             0.206844   0.395417   0.130240   0.309304   0.237464
   12             0.206843   0.395417   0.130240   0.309304   0.237464

                      6          7          8          9         10

                  2.000000   2.000000   2.000000   2.000000   2.000000

    1            -0.013030   0.049639   0.321016  -0.008393  -0.004080
    2             0.070756   0.071353   0.048614   0.130745   0.220294
    3             0.070756   0.071353   0.048614   0.130745   0.220294
    4             0.145616  -0.001854   0.151108   0.029499   0.079811
    5             0.145616  -0.001854   0.151108   0.029499   0.079811
    6             0.115941   0.191811   0.091669   0.059783   0.076655
    7             0.115941   0.191811   0.091669   0.059783   0.076655
    8             0.210650   0.065355   0.238129   0.281050   0.262470
    9             0.148667   0.247996   0.078315   0.342848   0.333242
   10             0.148667   0.247996   0.078315   0.342848   0.333242
   11             0.420211   0.433197   0.350722   0.300798   0.160802
   12             0.420211   0.433197   0.350722   0.300798   0.160802

                     11         12         13         14         15

                  2.000000   2.000000   2.000000   1.491277   0.508723

    1             0.398245  -0.001432   0.000000   0.010786   0.000000
    2             0.220825   0.000228  -0.001472   0.000621   0.007079
    3             0.220825   0.000228  -0.001472   0.000621   0.007079
    4             0.035649   0.009103   0.013289   0.003648   0.004040
    5             0.035649   0.009103   0.013289   0.003648   0.004040
    6             0.008284   0.008582   0.013715   0.005478   0.002746
    7             0.008284   0.008582   0.013715   0.005478   0.002746
    8             0.533943   0.218073   0.026310   0.823001   0.009033
    9             0.207539   0.316405   0.179177   0.110211   0.190847
   10             0.207539   0.316405   0.179177   0.110211   0.190847
   11             0.061609   0.557361   0.782136   0.208787   0.045133
   12             0.061609   0.557361   0.782136   0.208787   0.045133
 WARNING! MCSCF POPULATIONS SHOWN ABOVE ARE FOR THE NATURAL ORBITALS.
 IGNORE THE ABOVE DATA FOR MCSCF FUNCTIONS WHICH ARE NOT OF -FORS- TYPE.
 THE FOLLOWING POPULATIONS ARE CORRECT FOR ANY MCSCF WAVEFUNCTION.

               ----- POPULATIONS IN EACH AO -----
                             MULLIKEN      LOWDIN
              1  H  1  S      0.94368     0.48330
              2  H  1  S      0.12899     0.17691
              3  H  1  X      0.01177     0.02868
              4  H  1  Y      0.00645     0.01955
              5  H  1  Z      0.02748     0.04587
              6  H  1  S     -0.04139     0.01728
              7  H  1  X     -0.00242     0.03816
              8  H  1  Y     -0.03435     0.02418
              9  H  1  Z     -0.00576     0.05343
             10  H  2  S      0.93577     0.48489
             11  H  2  S      0.11940     0.17097
             12  H  2  X      0.00863     0.02163
             13  H  2  Y      0.00519     0.01588
             14  H  2  Z      0.02607     0.04819
             15  H  2  S      0.01951     0.01669
             16  H  2  X     -0.00217     0.03078
             17  H  2  Y     -0.02829     0.02560
             18  H  2  Z     -0.01322     0.05284
             19  H  3  S      0.93577     0.48489
             20  H  3  S      0.11940     0.17097
             21  H  3  X      0.00863     0.02163
             22  H  3  Y      0.00519     0.01588
             23  H  3  Z      0.02607     0.04819
             24  H  3  S      0.01951     0.01669
             25  H  3  X     -0.00217     0.03078
             26  H  3  Y     -0.02829     0.02560
             27  H  3  Z     -0.01322     0.05284
             28  H  4  S      0.87411     0.40417
             29  H  4  S     -0.03333     0.12909
             30  H  4  X      0.02184     0.04775
             31  H  4  Y      0.01025     0.02715
             32  H  4  Z      0.03470     0.06208
             33  H  4  S     -0.00314     0.01356
             34  H  4  X      0.00824     0.05011
             35  H  4  Y     -0.01832     0.02776
             36  H  4  Z      0.00260     0.06394
             37  H  5  S      0.87411     0.40417
             38  H  5  S     -0.03333     0.12909
             39  H  5  X      0.02184     0.04775
             40  H  5  Y      0.01025     0.02715
             41  H  5  Z      0.03470     0.06208
             42  H  5  S     -0.00314     0.01356
             43  H  5  X      0.00824     0.05011
             44  H  5  Y     -0.01832     0.02776
             45  H  5  Z      0.00260     0.06394
             46  H  6  S      0.86947     0.39939
             47  H  6  S     -0.01296     0.12916
             48  H  6  X      0.02256     0.04853
             49  H  6  Y      0.02730     0.04843
             50  H  6  Z      0.01759     0.03929
             51  H  6  S      0.00129     0.01282
             52  H  6  X      0.00796     0.05030
             53  H  6  Y      0.00699     0.04875
             54  H  6  Z     -0.00307     0.04050
             55  H  7  S      0.86947     0.39939
             56  H  7  S     -0.01296     0.12916
             57  H  7  X      0.02256     0.04853
             58  H  7  Y      0.02730     0.04843
             59  H  7  Z      0.01759     0.03929
             60  H  7  S      0.00129     0.01282
             61  H  7  X      0.00796     0.05030
             62  H  7  Y      0.00699     0.04875
             63  H  7  Z     -0.00307     0.04050
             64  C  8  S      1.49456     0.31636
             65  C  8  S     -0.55249     0.11252
             66  C  8  X      1.03683     0.64530
             67  C  8  Y      1.13825     0.72461
             68  C  8  Z      1.20609     0.78409
             69  C  8  X      0.00954     0.16910
             70  C  8  Y     -0.06541     0.15843
             71  C  8  Z     -0.31411     0.19663
             72  C  8 XX      0.02271     0.04466
             73  C  8 YY      0.01227     0.16503
             74  C  8 ZZ      0.01177     0.14823
             75  C  8 XY      0.00475     0.02393
             76  C  8 XZ      0.02822     0.00643
             77  C  8 YZ      0.00000     0.06149
             78  C  8  S     -0.81356     0.03730
             79  C  8  X     -0.00808     0.01461
             80  C  8  Y      0.13327     0.03177
             81  C  8  Z     -0.03021     0.02224
             82  C  8 XX      0.05982     0.00041
             83  C  8 YY     -0.00042     0.08395
             84  C  8 ZZ      0.02357     0.09576
             85  C  8 XY     -0.00197     0.07207
             86  C  8 XZ      0.03653     0.01240
             87  C  8 YZ      0.00000     0.11269
             88  C  9  S      1.50506     0.31160
             89  C  9  S     -0.46783     0.10881
             90  C  9  X      0.80997     0.48913
             91  C  9  Y      1.10648     0.68296
             92  C  9  Z      1.24135     0.79122
             93  C  9  X     -0.07608     0.13234
             94  C  9  Y     -0.10747     0.14861
             95  C  9  Z     -0.28816     0.18048
             96  C  9 XX      0.03019     0.04213
             97  C  9 YY      0.01991     0.17847
             98  C  9 ZZ      0.03507     0.15251
             99  C  9 XY      0.00578     0.06118
            100  C  9 XZ      0.03193     0.00941
            101  C  9 YZ      0.00000     0.06685
            102  C  9  S      0.23342     0.03670
            103  C  9  X     -0.00941     0.01347
            104  C  9  Y      0.08203     0.03091
            105  C  9  Z      0.01481     0.01861
            106  C  9 XX      0.00527     0.00062
            107  C  9 YY      0.01611     0.12177
            108  C  9 ZZ      0.03604     0.08968
            109  C  9 XY     -0.00473     0.12578
            110  C  9 XZ      0.04210     0.01885
            111  C  9 YZ      0.00000     0.11636
            112  C 10  S      1.50506     0.31160
            113  C 10  S     -0.46783     0.10881
            114  C 10  X      0.80997     0.48913
            115  C 10  Y      1.10648     0.68296
            116  C 10  Z      1.24135     0.79122
            117  C 10  X     -0.07608     0.13234
            118  C 10  Y     -0.10747     0.14861
            119  C 10  Z     -0.28816     0.18048
            120  C 10 XX      0.03019     0.04213
            121  C 10 YY      0.01991     0.17847
            122  C 10 ZZ      0.03507     0.15251
            123  C 10 XY      0.00578     0.06118
            124  C 10 XZ      0.03193     0.00941
            125  C 10 YZ      0.00000     0.06685
            126  C 10  S      0.23342     0.03670
            127  C 10  X     -0.00941     0.01347
            128  C 10  Y      0.08203     0.03091
            129  C 10  Z      0.01481     0.01861
            130  C 10 XX      0.00527     0.00062
            131  C 10 YY      0.01611     0.12177
            132  C 10 ZZ      0.03604     0.08968
            133  C 10 XY     -0.00473     0.12578
            134  C 10 XZ      0.04210     0.01885
            135  C 10 YZ      0.00000     0.11636
            136  N 11  S      1.63733     0.42371
            137  N 11  S     -0.62705     0.15197
            138  N 11  X      1.48977     1.02251
            139  N 11  Y      1.30366     0.89298
            140  N 11  Z      1.33936     0.92460
            141  N 11  X      0.07816     0.29198
            142  N 11  Y     -0.22817     0.27348
            143  N 11  Z     -0.15767     0.29592
            144  N 11 XX      0.01004     0.08068
            145  N 11 YY      0.00619     0.15758
            146  N 11 ZZ      0.00435     0.14643
            147  N 11 XY      0.00084     0.00610
            148  N 11 XZ      0.01248     0.00118
            149  N 11 YZ      0.00000     0.02714
            150  N 11  S     -0.19632     0.04188
            151  N 11  X      0.00788     0.02389
            152  N 11  Y     -0.03931     0.03459
            153  N 11  Z     -0.04414     0.02378
            154  N 11 XX     -0.00292     0.00011
            155  N 11 YY     -0.00216     0.07219
            156  N 11 ZZ      0.01094     0.05959
            157  N 11 XY      0.00148     0.04178
            158  N 11 XZ     -0.00473     0.00796
            159  N 11 YZ      0.00000     0.09560
            160  N 12  S      1.63733     0.42371
            161  N 12  S     -0.62705     0.15197
            162  N 12  X      1.48977     1.02251
            163  N 12  Y      1.30366     0.89298
            164  N 12  Z      1.33936     0.92460
            165  N 12  X      0.07816     0.29198
            166  N 12  Y     -0.22817     0.27348
            167  N 12  Z     -0.15767     0.29592
            168  N 12 XX      0.01004     0.08068
            169  N 12 YY      0.00619     0.15758
            170  N 12 ZZ      0.00435     0.14643
            171  N 12 XY      0.00084     0.00610
            172  N 12 XZ      0.01248     0.00118
            173  N 12 YZ      0.00000     0.02714
            174  N 12  S     -0.19632     0.04188
            175  N 12  X      0.00788     0.02389
            176  N 12  Y     -0.03931     0.03459
            177  N 12  Z     -0.04414     0.02378
            178  N 12 XX     -0.00292     0.00011
            179  N 12 YY     -0.00216     0.07219
            180  N 12 ZZ      0.01094     0.05959
            181  N 12 XY      0.00148     0.04178
            182  N 12 XZ     -0.00473     0.00796
            183  N 12 YZ      0.00000     0.09560

          ----- MULLIKEN ATOMIC OVERLAP POPULATIONS -----
          (OFF-DIAGONAL ELEMENTS NEED TO BE MULTIPLIED BY 2)

             1           2           3           4           5

    1    0.8148511
    2   -0.0108614   0.9063467
    3   -0.0108615  -0.0017097   0.9063471
    4   -0.0071688   0.0085709   0.0004400   0.5649542
    5   -0.0071687   0.0004400   0.0085709   0.0003605   0.5649543
    6   -0.0015502   0.0027467   0.0004370  -0.0260294   0.0000028
    7   -0.0015502   0.0004369   0.0027467   0.0000028  -0.0260295
    8    0.1262747   0.1693536   0.1693536   0.0218544   0.0218544
    9    0.0633175   0.0326366  -0.0175103  -0.0325246   0.0022062
   10    0.0633178  -0.0175103   0.0326363   0.0022062  -0.0325245
   11    0.0029239  -0.0191272  -0.0004337   0.3642301   0.0000450
   12    0.0029240  -0.0004337  -0.0191272   0.0000450   0.3642302

             6           7           8           9          10

    6    0.5665592
    7    0.0001012   0.5665593
    8   -0.0295570  -0.0295571   3.7137346
    9    0.0231815   0.0064753  -0.4360064   4.0461752
   10    0.0064753   0.0231816  -0.4360063   0.3013733   4.0461743
   11    0.3948161  -0.0000509   0.0703143   0.2655265   0.0069763
   12   -0.0000509   0.3948161   0.0703144   0.0069763   0.2655263

            11          12

   11    3.5153883
   12   -0.0005858   3.5153884

          TOTAL MULLIKEN AND LOWDIN ATOMIC POPULATIONS
       ATOM         MULL.POP.    CHARGE          LOW.POP.     CHARGE
    1 H             1.034448   -0.034448         0.887340    0.112660
    2 H             1.070889   -0.070889         0.867478    0.132522
    3 H             1.070889   -0.070889         0.867478    0.132522
    4 H             0.896941    0.103059         0.825601    0.174399
    5 H             0.896942    0.103058         0.825601    0.174399
    6 H             0.937132    0.062868         0.817176    0.182824
    7 H             0.937132    0.062868         0.817176    0.182824
    8 C             3.431927    0.568073         4.040012   -0.040012
    9 C             4.261827   -0.261827         3.928474    0.071526
   10 C             4.261826   -0.261826         3.928474    0.071526
   11 N             4.600023    0.399977         5.097595   -0.097595
   12 N             4.600023    0.399977         5.097595   -0.097595

          MULLIKEN SPHERICAL HARMONIC POPULATIONS
       ATOM           S       P       D      F      G      H      I    TOTAL
    1 H             1.03    0.00    0.00   0.00   0.00   0.00   0.00    1.03
    2 H             1.07    0.00    0.00   0.00   0.00   0.00   0.00    1.07
    3 H             1.07    0.00    0.00   0.00   0.00   0.00   0.00    1.07
    4 H             0.84    0.06    0.00   0.00   0.00   0.00   0.00    0.90
    5 H             0.84    0.06    0.00   0.00   0.00   0.00   0.00    0.90
    6 H             0.86    0.08    0.00   0.00   0.00   0.00   0.00    0.94
    7 H             0.86    0.08    0.00   0.00   0.00   0.00   0.00    0.94
    8 C             0.13    3.11    0.20   0.00   0.00   0.00   0.00    3.43
    9 C             1.27    2.77    0.22   0.00   0.00   0.00   0.00    4.26
   10 C             1.27    2.77    0.22   0.00   0.00   0.00   0.00    4.26
   11 N             0.81    3.75    0.04   0.00   0.00   0.00   0.00    4.60
   12 N             0.81    3.75    0.04   0.00   0.00   0.00   0.00    4.60

          ---------------------
          ELECTROSTATIC MOMENTS
          ---------------------

 POINT   1           X           Y           Z (BOHR)    CHARGE
                 0.000000    0.000000   -0.000508        1.00 (A.U.)
         DX          DY          DZ         /D/  (DEBYE)
     0.000000    0.000000   -0.011028    0.011028
 ...... END OF PROPERTY EVALUATION ......
 STEP CPU TIME =     0.04 TOTAL CPU TIME =       88.6 (    1.5 MIN)
 TOTAL WALL CLOCK TIME=       90.0 SECONDS, CPU UTILIZATION IS  98.39%
                975106  WORDS OF DYNAMIC MEMORY USED
 EXECUTION OF GAMESS TERMINATED NORMALLY Tue Sep 26 17:09:54 2017
 DDI: 1128 bytes (0.0 MB / 0 MWords) used by master data server.

 ----------------------------------------
 CPU timing information for all processes
 ========================================
 0: 75.396712 + 13.164822 = 88.561534
 ----------------------------------------
 ddikick.x: exited gracefully.
----- accounting info -----
Tue Sep 26 17:09:57 CEST 2017
Files used on the master node lpqlx139 were:
-rw-r--r-- 1 scemama scemama    573038 Sep 26 17:09 /dev/shm//gamess/C3.dat
-rw-r--r-- 1 scemama scemama    530309 Sep 26 17:08 /dev/shm//gamess/C3.F05
-rw-r--r-- 1 scemama scemama 873257616 Sep 26 17:08 /dev/shm//gamess/C3.F08
-rw-r--r-- 1 scemama scemama    314712 Sep 26 17:09 /dev/shm//gamess/C3.F09
-rw-r--r-- 1 scemama scemama  18192320 Sep 26 17:09 /dev/shm//gamess/C3.F10
-rw-r--r-- 1 scemama scemama    268000 Sep 26 17:08 /dev/shm//gamess/C3.F11
-rw-r--r-- 1 scemama scemama       248 Sep 26 17:09 /dev/shm//gamess/C3.F12
-rw-r--r-- 1 scemama scemama    303968 Sep 26 17:09 /dev/shm//gamess/C3.F13
-rw-r--r-- 1 scemama scemama   4800008 Sep 26 17:09 /dev/shm//gamess/C3.F14
-rw-r--r-- 1 scemama scemama    180984 Sep 26 17:09 /dev/shm//gamess/C3.F15
-rw-r--r-- 1 scemama scemama    180984 Sep 26 17:09 /dev/shm//gamess/C3.F16
-rw-r--r-- 1 scemama scemama    460224 Sep 26 17:09 /dev/shm//gamess/C3.F23
0.088u 0.072s 1:32.49 0.1%	0+0k 0+0io 0pf+0w
