----- GAMESS execution script -----
This job is running on host lpqlx139
under operating system Linux at Tue Sep 26 17:10:17 CEST 2017
Available scratch disk space (Kbyte units) at beginning of the job is
Filesystem     1K-blocks    Used Available Use% Mounted on
tmpfs            6592140 2721844   3870296  42% /run/shm

 Distributed Data Interface kickoff program.
 Initiating 1 compute processes on 1 nodes to run the following command:
 /usr/local/gamess/gamess.01.x C5 

          ******************************************************
          *         GAMESS VERSION = 22 FEB 2006 (R5)          *
          *             FROM IOWA STATE UNIVERSITY             *
          * M.W.SCHMIDT, K.K.BALDRIDGE, J.A.BOATZ, S.T.ELBERT, *
          *   M.S.GORDON, J.H.JENSEN, S.KOSEKI, N.MATSUNAGA,   *
          *          K.A.NGUYEN, S.J.SU, T.L.WINDUS,           *
          *       TOGETHER WITH M.DUPUIS, J.A.MONTGOMERY       *
          *         J.COMPUT.CHEM.  14, 1347-1363(1993)        *
          ***************** AMD 64 BIT VERSION *****************

     SINCE 1993, STUDENTS AND POSTDOCS WORKING AT IOWA STATE UNIVERSITY
     AND ALSO IN THEIR VARIOUS JOBS AFTER LEAVING ISU HAVE MADE IMPORTANT
     CONTRIBUTIONS TO THE CODE:
     IVANA ADAMOVIC, CHRISTINE AIKENS, YURI ALEXEEV, POOJA ARORA, ROB BELL,
     PRADIPTA BANDYOPADHYAY, BRETT BODE, GALINA CHABAN, WEI CHEN,
     CHEOL HO CHOI, PAUL DAY, TIM DUDLEY, DMITRI FEDOROV, GRAHAM FLETCHER,
     MARK FREITAG, KURT GLAESEMANN, GRANT MERRILL, TAKESHI NAGATA,
     HEATHER NETZLOFF, BOSILJKA NJEGIC, RYAN OLSON, MIKE PAK, JIM SHOEMAKER,
     LYUDMILA SLIPCHENKO, JIE SONG, TETSUYA TAKETSUGU, SIMON WEBB.

     ADDITIONAL CODE HAS BEEN PROVIDED BY COLLABORATORS IN OTHER GROUPS:
     IOWA STATE UNIVERSITY: JOE IVANIC, KLAUS RUEDENBERG
     UNIVERSITY OF TOKYO: KIMIHIKO HIRAO, HARUYUKI NAKANO, TAKAHITO
          NAKAJIMA, TAKAO TSUNEDA, MUNEAKI KAMIYA, SUSUMU YANAGISAWA,
          KIYOSHI YAGI
     UNIVERSITY OF SOUTHERN DENMARK: FRANK JENSEN
     UNIVERSITY OF IOWA: VISVALDAS KAIRYS, HUI LI
     NATIONAL INST. OF STANDARDS AND TECHNOLOGY: WALT STEVENS, DAVID GARMER
     UNIVERSITY OF PISA: BENEDETTA MENNUCCI, JACOPO TOMASI
     UNIVERSITY OF MEMPHIS: HENRY KURTZ, PRAKASHAN KORAMBATH
     UNIVERSITY OF ALBERTA: MARIUSZ KLOBUKOWSKI
     UNIVERSITY OF NEW ENGLAND: MARK SPACKMAN
     MIE UNIVERSITY: HIROAKI UMEDA
     MICHIGAN STATE UNIVERSITY:
          KAROL KOWALSKI, MARTA WLOCH, PIOTR PIECUCH
     UNIVERSITY OF SILESIA: MONIKA MUSIAL, STANISLAW KUCHARSKI
     FACULTES UNIVERSITAIRES NOTRE-DAME DE LA PAIX:
          OLIVIER QUINET, BENOIT CHAMPAGNE
     UNIVERSITY OF CALIFORNIA - SANTA BARBARA: BERNARD KIRTMAN
     INSTITUTE FOR MOLECULAR SCIENCE: KAZUYA ISHIMURA AND SHIGERU NAGASE
     UNIVERSITY OF NOTRE DAME: DAN CHIPMAN
     KYUSHU UNIVERSITY:
          FENG LONG GU, JACEK KORCHOWIEC, MARCIN MAKOWSKI, AND YURIKO AOKI
     PENNSYLVANIA STATE UNIVERSITY:
          TZVETELIN IORDANOV, CHET SWALINA, SHARON HAMMES-SCHIFFER

 EXECUTION OF GAMESS BEGUN Tue Sep 26 17:10:17 2017

            ECHO OF THE FIRST FEW INPUT CARDS -
 INPUT CARD> $CONTRL                                                                        
 INPUT CARD>   EXETYP=RUN COORD=UNIQUE  UNITS=ANGS                                          
 INPUT CARD>   RUNTYP=ENERGY SCFTYP=MCSCF CITYP=NONE                                        
 INPUT CARD>   MAXIT=100                                                                    
 INPUT CARD>   ISPHER=1                                                                     
 INPUT CARD>   MULT=1                                                                       
 INPUT CARD>   ICHARG=1                                                                     
 INPUT CARD>   MPLEVL=0                                                                     
 INPUT CARD>   ECP=READ                                                                     
 INPUT CARD> $END                                                                           
 INPUT CARD>                                                                                
 INPUT CARD> $GUESS                                                                         
 INPUT CARD>  GUESS=MOREAD                                                                  
 INPUT CARD>  NORB=235                                                                      
 INPUT CARD> $END                                                                           
 INPUT CARD>                                                                                
 INPUT CARD> $SCF                                                                           
 INPUT CARD>  DIRSCF=.T.                                                                    
 INPUT CARD> $END                                                                           
 INPUT CARD>                                                                                
 INPUT CARD> $MCSCF                                                                         
 INPUT CARD>   FOCAS=.F.    SOSCF=.T.   FULLNR=.F.                                          
 INPUT CARD>   CISTEP=GUGA EKT=.F. QUAD=.F. JACOBI=.f.                                      
 INPUT CARD>   MAXIT=1000                                                                   
 INPUT CARD> $END                                                                           
 INPUT CARD>                                                                                
 INPUT CARD> $GUGDIA                                                                        
 INPUT CARD>  NSTATE=2                                                                      
 INPUT CARD> $END                                                                           
 INPUT CARD>                                                                                
 INPUT CARD> $GUGDM2                                                                        
 INPUT CARD>  WSTATE(1)=0.5,0.5                                                             
 INPUT CARD> $END                                                                           
 INPUT CARD>                                                                                
 INPUT CARD>                                                                                
 INPUT CARD> $DRT                                                                           
 INPUT CARD>  NMCC=18                                                                       
 INPUT CARD>  NDOC=1                                                                        
 INPUT CARD>  NALP=0                                                                        
 INPUT CARD>  NVAL=1                                                                        
 INPUT CARD>  NEXT=0                                                                        
 INPUT CARD>  ISTSYM=1                                                                      
 INPUT CARD>  FORS=.TRUE.                                                                   
 INPUT CARD>  GROUP=C1                                                                      
 INPUT CARD>  MXNINT= 600000                                                                
 INPUT CARD>  NPRT=2                                                                        
 INPUT CARD> $END                                                                           
 INPUT CARD>                                                                                
 INPUT CARD> $GUGDM                                                                         
 INPUT CARD>  NFLGDM(1)=1,1                                                                 

 ..... DONE SETTING UP THE RUN .....
    1000000 WORDS OF MEMORY AVAILABLE

     $BASIS REQUESTS READING THE "BASIS   " BASIS SET FROM AN EXTERNAL FILE


     RUN TITLE
     ---------
 C5                                                                              

 THE POINT GROUP OF THE MOLECULE IS C1      
 THE ORDER OF THE PRINCIPAL AXIS IS     0

 THE EXTERNAL BASIS SET FILE BEING READ IS
     "/home/scemama/Cyanines/Runs/AVDZ_Pseudo/BASIS"
 *** WARNING! ATOM   1 SHELL    1 TYPE S HAS NORMALIZATION   1.32259418
 *** WARNING! ATOM   1 SHELL    3 TYPE P HAS NORMALIZATION  22.65171974
 *** WARNING! ATOM   2 SHELL    6 TYPE S HAS NORMALIZATION   1.32259418
 *** WARNING! ATOM   2 SHELL    8 TYPE P HAS NORMALIZATION  22.65171974
 *** WARNING! ATOM   3 SHELL   11 TYPE S HAS NORMALIZATION   1.32259418
 *** WARNING! ATOM   3 SHELL   13 TYPE P HAS NORMALIZATION  22.65171974
 *** WARNING! ATOM   4 SHELL   16 TYPE S HAS NORMALIZATION   1.32259418
 *** WARNING! ATOM   4 SHELL   18 TYPE P HAS NORMALIZATION  22.65171974
 *** WARNING! ATOM   5 SHELL   21 TYPE S HAS NORMALIZATION   1.32259418
 *** WARNING! ATOM   5 SHELL   23 TYPE P HAS NORMALIZATION  22.65171974
 *** WARNING! ATOM   6 SHELL   26 TYPE S HAS NORMALIZATION   1.32259418
 *** WARNING! ATOM   6 SHELL   28 TYPE P HAS NORMALIZATION  22.65171974
 *** WARNING! ATOM   7 SHELL   31 TYPE S HAS NORMALIZATION   1.32259418
 *** WARNING! ATOM   7 SHELL   33 TYPE P HAS NORMALIZATION  22.65171974
 *** WARNING! ATOM   8 SHELL   36 TYPE S HAS NORMALIZATION   1.32259418
 *** WARNING! ATOM   8 SHELL   38 TYPE P HAS NORMALIZATION  22.65171974
 *** WARNING! ATOM   9 SHELL   41 TYPE S HAS NORMALIZATION   1.32259418
 *** WARNING! ATOM   9 SHELL   43 TYPE P HAS NORMALIZATION  22.65171974

 ATOM      ATOMIC                      COORDINATES (BOHR)
           CHARGE         X                   Y                   Z
 H           1.0     0.0000000000        0.0000000000        2.5453248452
 H           1.0     0.0000000000        2.4339935283       -2.7532873004
 H           1.0     0.0000000000       -2.4339935283       -2.7532873004
 H           1.0     0.0000000000        4.3990723398        2.7492791916
 H           1.0     0.0000000000       -4.3990723398        2.7492791916
 H           1.0     0.0000000000        7.1636602017       -2.0941376478
 H           1.0     0.0000000000       -7.1636602017       -2.0941376478
 H           1.0     0.0000000000        8.3522392664        0.9246580436
 H           1.0     0.0000000000       -8.3522392664        0.9246580436
 C           6.0     0.0000000000        0.0000000000        0.4888777822
 C           6.0     0.0000000000        2.3303099326       -0.7064740605
 C           6.0     0.0000000000       -2.3303099326       -0.7064740605
 C           6.0     0.0000000000        4.5236241797        0.7019330490
 C           6.0     0.0000000000       -4.5236241797        0.7019330490
 N           7.0     0.0000000000        6.8370966537       -0.2197940296
 N           7.0     0.0000000000       -6.8370966537       -0.2197940296

          INTERNUCLEAR DISTANCES (ANGS.)
          ------------------------------

                    H              H              H              H         

  1  H               0.0000000      3.0855896      3.0855896      2.3303896 *  
  2  H               3.0855896      0.0000000      2.5760280 *    3.0919430    
  3  H               3.0855896      2.5760280 *    0.0000000      4.6425775    
  4  H               2.3303896 *    3.0919430      4.6425775      0.0000000    
  5  H               2.3303896 *    4.6425775      3.0919430      4.6557780    
  6  H               4.5164167      2.5270208 *    5.0908236      2.9511600 *  
  7  H               4.5164167      5.0908236      2.5270208 *    6.6338541    
  8  H               4.5022524      3.6873029      6.0305337      2.3040046 *  
  9  H               4.5022524      6.0305337      3.6873029      6.8164354    
 10  C               1.0882250 *    2.1453526 *    2.1453526 *    2.6172217 *  
 11  C               2.1170093 *    1.0845158 *    2.7439783 *    2.1313436 *  
 12  C               2.1170093 *    2.7439783 *    1.0845158 *    4.0031416    
 13  C               2.5849249 *    2.1367954 *    4.1108249      1.0854120 *  
 14  C               2.5849249 *    4.1108249      2.1367954 *    4.8443898    
 15  N               3.9027234      2.6881947 *    5.0859330      2.0329884 *  
 16  N               3.9027234      5.0859330      2.6881947 *    6.1500070    

                    H              H              H              H         

  1  H               2.3303896 *    4.5164167      4.5164167      4.5022524    
  2  H               4.6425775      2.5270208 *    5.0908236      3.6873029    
  3  H               3.0919430      5.0908236      2.5270208 *    6.0305337    
  4  H               4.6557780      2.9511600 *    6.6338541      2.3040046 *  
  5  H               0.0000000      6.6338541      2.9511600 *    6.8164354    
  6  H               6.6338541      0.0000000      7.5816920      1.7168395 *  
  7  H               2.9511600 *    7.5816920      0.0000000      8.3646213    
  8  H               6.8164354      1.7168395 *    8.3646213      0.0000000    
  9  H               2.3040046 *    8.3646213      1.7168395 *    8.8396300    
 10  C               2.6172217 *    4.0297463      4.0297463      4.4258268    
 11  C               4.0031416      2.6610242 *    5.0773745      3.3014989    
 12  C               2.1313436 *    5.0773745      2.6610242 *    5.7184807    
 13  C               4.8443898      2.0349464 *    6.3591745      2.0294413 *  
 14  C               1.0854120 *    6.3591745      2.0349464 *    6.8146333    
 15  N               6.1500070      1.0068016 *    7.4749795      1.0047998 *  
 16  N               2.0329884 *    7.4749795      1.0068016 *    8.0606341    

                    H              C              C              C         

  1  H               4.5022524      1.0882250 *    2.1170093 *    2.1170093 *  
  2  H               6.0305337      2.1453526 *    1.0845158 *    2.7439783 *  
  3  H               3.6873029      2.1453526 *    2.7439783 *    1.0845158 *  
  4  H               6.8164354      2.6172217 *    2.1313436 *    4.0031416    
  5  H               2.3040046 *    2.6172217 *    4.0031416      2.1313436 *  
  6  H               8.3646213      4.0297463      2.6610242 *    5.0773745    
  7  H               1.7168395 *    4.0297463      5.0773745      2.6610242 *  
  8  H               8.8396300      4.4258268      3.3014989      5.7184807    
  9  H               0.0000000      4.4258268      5.7184807      3.3014989    
 10  C               4.4258268      0.0000000      1.3859202 *    1.3859202 *  
 11  C               5.7184807      1.3859202 *    0.0000000      2.4662940 *  
 12  C               3.3014989      1.3859202 *    2.4662940 *    0.0000000    
 13  C               6.8146333      2.3964526 *    1.3793407 *    3.7027294    
 14  C               2.0294413 *    2.3964526 *    3.7027294      1.3793407 *  
 15  N               8.0606341      3.6374193      2.3987543 *    4.8580143    
 16  N               1.0047998 *    3.6374193      4.8580143      2.3987543 *  

                    C              C              N              N         

  1  H               2.5849249 *    2.5849249 *    3.9027234      3.9027234    
  2  H               2.1367954 *    4.1108249      2.6881947 *    5.0859330    
  3  H               4.1108249      2.1367954 *    5.0859330      2.6881947 *  
  4  H               1.0854120 *    4.8443898      2.0329884 *    6.1500070    
  5  H               4.8443898      1.0854120 *    6.1500070      2.0329884 *  
  6  H               2.0349464 *    6.3591745      1.0068016 *    7.4749795    
  7  H               6.3591745      2.0349464 *    7.4749795      1.0068016 *  
  8  H               2.0294413 *    6.8146333      1.0047998 *    8.0606341    
  9  H               6.8146333      2.0294413 *    8.0606341      1.0047998 *  
 10  C               2.3964526 *    2.3964526 *    3.6374193      3.6374193    
 11  C               1.3793407 *    3.7027294      2.3987543 *    4.8580143    
 12  C               3.7027294      1.3793407 *    4.8580143      2.3987543 *  
 13  C               0.0000000      4.7875980      1.3178251 *    6.0315891    
 14  C               4.7875980      0.0000000      6.0315891      1.3178251 *  
 15  N               1.3178251 *    6.0315891      0.0000000      7.2360720    
 16  N               6.0315891      1.3178251 *    7.2360720      0.0000000    

  * ... LESS THAN  3.000


     ATOMIC BASIS SET
     ----------------
 THE CONTRACTED PRIMITIVE FUNCTIONS HAVE BEEN UNNORMALIZED
 THE CONTRACTED BASIS FUNCTIONS ARE NOW NORMALIZED TO UNITY

  SHELL TYPE  PRIMITIVE        EXPONENT          CONTRACTION COEFFICIENT(S)

 H         

      1   S       1             0.0130000    0.000933751491
      1   S       2             0.0299000   -0.002802577067
      1   S       3             0.0687700    0.076304426024
      1   S       4             0.1581700    0.305115864344
      1   S       5             0.3637920    0.367168015485
      1   S       6             0.8367210    0.224620137364
      1   S       7             1.9244580    0.128877544677
      1   S       8             4.4262540    0.039632857196
      1   S       9            10.1803850   -0.000597812569

      2   S      10             0.1704830    1.000000000000

      3   P      11             0.0030000    0.028133435917
      3   P      12             0.0078000   -0.020681020122
      3   P      13             0.0202810   -0.001223192866
      3   P      14             0.0527300   -0.005391109298
      3   P      15             0.1370970   -0.261174328600
      3   P      16             0.3564510   -0.413054109456
      3   P      17             0.9267740   -0.315515804256
      3   P      18             2.4096120   -0.212812906956
      3   P      19             6.2649910   -0.007860146750

      4   S      20             0.0297400    1.000000000000

      5   P      21             0.1410000    1.000000000000

 H         

      6   S      22             0.0130000    0.000933751491
      6   S      23             0.0299000   -0.002802577067
      6   S      24             0.0687700    0.076304426024
      6   S      25             0.1581700    0.305115864344
      6   S      26             0.3637920    0.367168015485
      6   S      27             0.8367210    0.224620137364
      6   S      28             1.9244580    0.128877544677
      6   S      29             4.4262540    0.039632857196
      6   S      30            10.1803850   -0.000597812569

      7   S      31             0.1704830    1.000000000000

      8   P      32             0.0030000    0.028133435917
      8   P      33             0.0078000   -0.020681020122
      8   P      34             0.0202810   -0.001223192866
      8   P      35             0.0527300   -0.005391109298
      8   P      36             0.1370970   -0.261174328600
      8   P      37             0.3564510   -0.413054109456
      8   P      38             0.9267740   -0.315515804256
      8   P      39             2.4096120   -0.212812906956
      8   P      40             6.2649910   -0.007860146750

      9   S      41             0.0297400    1.000000000000

     10   P      42             0.1410000    1.000000000000

 H         

     11   S      43             0.0130000    0.000933751491
     11   S      44             0.0299000   -0.002802577067
     11   S      45             0.0687700    0.076304426024
     11   S      46             0.1581700    0.305115864344
     11   S      47             0.3637920    0.367168015485
     11   S      48             0.8367210    0.224620137364
     11   S      49             1.9244580    0.128877544677
     11   S      50             4.4262540    0.039632857196
     11   S      51            10.1803850   -0.000597812569

     12   S      52             0.1704830    1.000000000000

     13   P      53             0.0030000    0.028133435917
     13   P      54             0.0078000   -0.020681020122
     13   P      55             0.0202810   -0.001223192866
     13   P      56             0.0527300   -0.005391109298
     13   P      57             0.1370970   -0.261174328600
     13   P      58             0.3564510   -0.413054109456
     13   P      59             0.9267740   -0.315515804256
     13   P      60             2.4096120   -0.212812906956
     13   P      61             6.2649910   -0.007860146750

     14   S      62             0.0297400    1.000000000000

     15   P      63             0.1410000    1.000000000000

 H         

     16   S      64             0.0130000    0.000933751491
     16   S      65             0.0299000   -0.002802577067
     16   S      66             0.0687700    0.076304426024
     16   S      67             0.1581700    0.305115864344
     16   S      68             0.3637920    0.367168015485
     16   S      69             0.8367210    0.224620137364
     16   S      70             1.9244580    0.128877544677
     16   S      71             4.4262540    0.039632857196
     16   S      72            10.1803850   -0.000597812569

     17   S      73             0.1704830    1.000000000000

     18   P      74             0.0030000    0.028133435917
     18   P      75             0.0078000   -0.020681020122
     18   P      76             0.0202810   -0.001223192866
     18   P      77             0.0527300   -0.005391109298
     18   P      78             0.1370970   -0.261174328600
     18   P      79             0.3564510   -0.413054109456
     18   P      80             0.9267740   -0.315515804256
     18   P      81             2.4096120   -0.212812906956
     18   P      82             6.2649910   -0.007860146750

     19   S      83             0.0297400    1.000000000000

     20   P      84             0.1410000    1.000000000000

 H         

     21   S      85             0.0130000    0.000933751491
     21   S      86             0.0299000   -0.002802577067
     21   S      87             0.0687700    0.076304426024
     21   S      88             0.1581700    0.305115864344
     21   S      89             0.3637920    0.367168015485
     21   S      90             0.8367210    0.224620137364
     21   S      91             1.9244580    0.128877544677
     21   S      92             4.4262540    0.039632857196
     21   S      93            10.1803850   -0.000597812569

     22   S      94             0.1704830    1.000000000000

     23   P      95             0.0030000    0.028133435917
     23   P      96             0.0078000   -0.020681020122
     23   P      97             0.0202810   -0.001223192866
     23   P      98             0.0527300   -0.005391109298
     23   P      99             0.1370970   -0.261174328600
     23   P     100             0.3564510   -0.413054109456
     23   P     101             0.9267740   -0.315515804256
     23   P     102             2.4096120   -0.212812906956
     23   P     103             6.2649910   -0.007860146750

     24   S     104             0.0297400    1.000000000000

     25   P     105             0.1410000    1.000000000000

 H         

     26   S     106             0.0130000    0.000933751491
     26   S     107             0.0299000   -0.002802577067
     26   S     108             0.0687700    0.076304426024
     26   S     109             0.1581700    0.305115864344
     26   S     110             0.3637920    0.367168015485
     26   S     111             0.8367210    0.224620137364
     26   S     112             1.9244580    0.128877544677
     26   S     113             4.4262540    0.039632857196
     26   S     114            10.1803850   -0.000597812569

     27   S     115             0.1704830    1.000000000000

     28   P     116             0.0030000    0.028133435917
     28   P     117             0.0078000   -0.020681020122
     28   P     118             0.0202810   -0.001223192866
     28   P     119             0.0527300   -0.005391109298
     28   P     120             0.1370970   -0.261174328600
     28   P     121             0.3564510   -0.413054109456
     28   P     122             0.9267740   -0.315515804256
     28   P     123             2.4096120   -0.212812906956
     28   P     124             6.2649910   -0.007860146750

     29   S     125             0.0297400    1.000000000000

     30   P     126             0.1410000    1.000000000000

 H         

     31   S     127             0.0130000    0.000933751491
     31   S     128             0.0299000   -0.002802577067
     31   S     129             0.0687700    0.076304426024
     31   S     130             0.1581700    0.305115864344
     31   S     131             0.3637920    0.367168015485
     31   S     132             0.8367210    0.224620137364
     31   S     133             1.9244580    0.128877544677
     31   S     134             4.4262540    0.039632857196
     31   S     135            10.1803850   -0.000597812569

     32   S     136             0.1704830    1.000000000000

     33   P     137             0.0030000    0.028133435917
     33   P     138             0.0078000   -0.020681020122
     33   P     139             0.0202810   -0.001223192866
     33   P     140             0.0527300   -0.005391109298
     33   P     141             0.1370970   -0.261174328600
     33   P     142             0.3564510   -0.413054109456
     33   P     143             0.9267740   -0.315515804256
     33   P     144             2.4096120   -0.212812906956
     33   P     145             6.2649910   -0.007860146750

     34   S     146             0.0297400    1.000000000000

     35   P     147             0.1410000    1.000000000000

 H         

     36   S     148             0.0130000    0.000933751491
     36   S     149             0.0299000   -0.002802577067
     36   S     150             0.0687700    0.076304426024
     36   S     151             0.1581700    0.305115864344
     36   S     152             0.3637920    0.367168015485
     36   S     153             0.8367210    0.224620137364
     36   S     154             1.9244580    0.128877544677
     36   S     155             4.4262540    0.039632857196
     36   S     156            10.1803850   -0.000597812569

     37   S     157             0.1704830    1.000000000000

     38   P     158             0.0030000    0.028133435917
     38   P     159             0.0078000   -0.020681020122
     38   P     160             0.0202810   -0.001223192866
     38   P     161             0.0527300   -0.005391109298
     38   P     162             0.1370970   -0.261174328600
     38   P     163             0.3564510   -0.413054109456
     38   P     164             0.9267740   -0.315515804256
     38   P     165             2.4096120   -0.212812906956
     38   P     166             6.2649910   -0.007860146750

     39   S     167             0.0297400    1.000000000000

     40   P     168             0.1410000    1.000000000000

 H         

     41   S     169             0.0130000    0.000933751491
     41   S     170             0.0299000   -0.002802577067
     41   S     171             0.0687700    0.076304426024
     41   S     172             0.1581700    0.305115864344
     41   S     173             0.3637920    0.367168015485
     41   S     174             0.8367210    0.224620137364
     41   S     175             1.9244580    0.128877544677
     41   S     176             4.4262540    0.039632857196
     41   S     177            10.1803850   -0.000597812569

     42   S     178             0.1704830    1.000000000000

     43   P     179             0.0030000    0.028133435917
     43   P     180             0.0078000   -0.020681020122
     43   P     181             0.0202810   -0.001223192866
     43   P     182             0.0527300   -0.005391109298
     43   P     183             0.1370970   -0.261174328600
     43   P     184             0.3564510   -0.413054109456
     43   P     185             0.9267740   -0.315515804256
     43   P     186             2.4096120   -0.212812906956
     43   P     187             6.2649910   -0.007860146750

     44   S     188             0.0297400    1.000000000000

     45   P     189             0.1410000    1.000000000000

 C         

     46   S     190             0.0513440    0.013990987871
     46   S     191             0.1026190    0.169851852753
     46   S     192             0.2051000    0.397528655377
     46   S     193             0.4099240    0.380368670253
     46   S     194             0.8192970    0.180112843858
     46   S     195             1.6374940   -0.033511970948
     46   S     196             3.2727910   -0.121498894671
     46   S     197             6.5411870    0.015175986844
     46   S     198            13.0735940   -0.000704999389

     47   S     199             0.1278520    1.000000000000

     48   P     200             0.0292810    0.001787000047
     48   P     201             0.0585470    0.050426001336
     48   P     202             0.1170630    0.191634005079
     48   P     203             0.2340640    0.302667008021
     48   P     204             0.4680030    0.289868007682
     48   P     205             0.9357570    0.210979005591
     48   P     206             1.8710160    0.112024002969
     48   P     207             3.7410350    0.054425001442
     48   P     208             7.4800760    0.021931000581

     49   P     209             0.1491610    1.000000000000

     50   D     210             0.5611600    1.000000000000

     51   S     211             0.0469000    1.000000000000

     52   P     212             0.0404100    1.000000000000

     53   D     213             0.1510000    1.000000000000

 C         

     54   S     214             0.0513440    0.013990987871
     54   S     215             0.1026190    0.169851852753
     54   S     216             0.2051000    0.397528655377
     54   S     217             0.4099240    0.380368670253
     54   S     218             0.8192970    0.180112843858
     54   S     219             1.6374940   -0.033511970948
     54   S     220             3.2727910   -0.121498894671
     54   S     221             6.5411870    0.015175986844
     54   S     222            13.0735940   -0.000704999389

     55   S     223             0.1278520    1.000000000000

     56   P     224             0.0292810    0.001787000047
     56   P     225             0.0585470    0.050426001336
     56   P     226             0.1170630    0.191634005079
     56   P     227             0.2340640    0.302667008021
     56   P     228             0.4680030    0.289868007682
     56   P     229             0.9357570    0.210979005591
     56   P     230             1.8710160    0.112024002969
     56   P     231             3.7410350    0.054425001442
     56   P     232             7.4800760    0.021931000581

     57   P     233             0.1491610    1.000000000000

     58   D     234             0.5611600    1.000000000000

     59   S     235             0.0469000    1.000000000000

     60   P     236             0.0404100    1.000000000000

     61   D     237             0.1510000    1.000000000000

 C         

     62   S     238             0.0513440    0.013990987871
     62   S     239             0.1026190    0.169851852753
     62   S     240             0.2051000    0.397528655377
     62   S     241             0.4099240    0.380368670253
     62   S     242             0.8192970    0.180112843858
     62   S     243             1.6374940   -0.033511970948
     62   S     244             3.2727910   -0.121498894671
     62   S     245             6.5411870    0.015175986844
     62   S     246            13.0735940   -0.000704999389

     63   S     247             0.1278520    1.000000000000

     64   P     248             0.0292810    0.001787000047
     64   P     249             0.0585470    0.050426001336
     64   P     250             0.1170630    0.191634005079
     64   P     251             0.2340640    0.302667008021
     64   P     252             0.4680030    0.289868007682
     64   P     253             0.9357570    0.210979005591
     64   P     254             1.8710160    0.112024002969
     64   P     255             3.7410350    0.054425001442
     64   P     256             7.4800760    0.021931000581

     65   P     257             0.1491610    1.000000000000

     66   D     258             0.5611600    1.000000000000

     67   S     259             0.0469000    1.000000000000

     68   P     260             0.0404100    1.000000000000

     69   D     261             0.1510000    1.000000000000

 C         

     70   S     262             0.0513440    0.013990987871
     70   S     263             0.1026190    0.169851852753
     70   S     264             0.2051000    0.397528655377
     70   S     265             0.4099240    0.380368670253
     70   S     266             0.8192970    0.180112843858
     70   S     267             1.6374940   -0.033511970948
     70   S     268             3.2727910   -0.121498894671
     70   S     269             6.5411870    0.015175986844
     70   S     270            13.0735940   -0.000704999389

     71   S     271             0.1278520    1.000000000000

     72   P     272             0.0292810    0.001787000047
     72   P     273             0.0585470    0.050426001336
     72   P     274             0.1170630    0.191634005079
     72   P     275             0.2340640    0.302667008021
     72   P     276             0.4680030    0.289868007682
     72   P     277             0.9357570    0.210979005591
     72   P     278             1.8710160    0.112024002969
     72   P     279             3.7410350    0.054425001442
     72   P     280             7.4800760    0.021931000581

     73   P     281             0.1491610    1.000000000000

     74   D     282             0.5611600    1.000000000000

     75   S     283             0.0469000    1.000000000000

     76   P     284             0.0404100    1.000000000000

     77   D     285             0.1510000    1.000000000000

 C         

     78   S     286             0.0513440    0.013990987871
     78   S     287             0.1026190    0.169851852753
     78   S     288             0.2051000    0.397528655377
     78   S     289             0.4099240    0.380368670253
     78   S     290             0.8192970    0.180112843858
     78   S     291             1.6374940   -0.033511970948
     78   S     292             3.2727910   -0.121498894671
     78   S     293             6.5411870    0.015175986844
     78   S     294            13.0735940   -0.000704999389

     79   S     295             0.1278520    1.000000000000

     80   P     296             0.0292810    0.001787000047
     80   P     297             0.0585470    0.050426001336
     80   P     298             0.1170630    0.191634005079
     80   P     299             0.2340640    0.302667008021
     80   P     300             0.4680030    0.289868007682
     80   P     301             0.9357570    0.210979005591
     80   P     302             1.8710160    0.112024002969
     80   P     303             3.7410350    0.054425001442
     80   P     304             7.4800760    0.021931000581

     81   P     305             0.1491610    1.000000000000

     82   D     306             0.5611600    1.000000000000

     83   S     307             0.0469000    1.000000000000

     84   P     308             0.0404100    1.000000000000

     85   D     309             0.1510000    1.000000000000

 N         

     86   S     310             0.0988690    0.067266010234
     86   S     311             0.2114430    0.334290050859
     86   S     312             0.4521970    0.454257069111
     86   S     313             0.9670800    0.267861040752
     86   S     314             2.0682210    0.000248000038
     86   S     315             4.4231500   -0.132606020175
     86   S     316             9.4594620    0.014437002196
     86   S     317            20.2302460    0.000359000055
     86   S     318            43.2649190   -0.000094000014

     87   S     319             0.1751230    1.000000000000

     88   P     320             0.0732340    0.035757988749
     88   P     321             0.1458670    0.153944951562
     88   P     322             0.2905350    0.277655912638
     88   P     323             0.5786830    0.297675906338
     88   P     324             1.1526120    0.234402926247
     88   P     325             2.2957560    0.140320955849
     88   P     326             4.5726520    0.067218978850
     88   P     327             9.1077390    0.031593990059
     88   P     328            18.1406570    0.003300998961

     89   P     329             0.2230420    1.000000000000

     90   D     330             0.8320580    1.000000000000

     91   S     331             0.0612400    1.000000000000

     92   P     332             0.0561100    1.000000000000

     93   D     333             0.2300000    1.000000000000

 N         

     94   S     334             0.0988690    0.067266010234
     94   S     335             0.2114430    0.334290050859
     94   S     336             0.4521970    0.454257069111
     94   S     337             0.9670800    0.267861040752
     94   S     338             2.0682210    0.000248000038
     94   S     339             4.4231500   -0.132606020175
     94   S     340             9.4594620    0.014437002196
     94   S     341            20.2302460    0.000359000055
     94   S     342            43.2649190   -0.000094000014

     95   S     343             0.1751230    1.000000000000

     96   P     344             0.0732340    0.035757988749
     96   P     345             0.1458670    0.153944951562
     96   P     346             0.2905350    0.277655912638
     96   P     347             0.5786830    0.297675906338
     96   P     348             1.1526120    0.234402926247
     96   P     349             2.2957560    0.140320955849
     96   P     350             4.5726520    0.067218978850
     96   P     351             9.1077390    0.031593990059
     96   P     352            18.1406570    0.003300998961

     97   P     353             0.2230420    1.000000000000

     98   D     354             0.8320580    1.000000000000

     99   S     355             0.0612400    1.000000000000

    100   P     356             0.0561100    1.000000000000

    101   D     357             0.2300000    1.000000000000

 TOTAL NUMBER OF BASIS SET SHELLS             =  101
 NUMBER OF CARTESIAN GAUSSIAN BASIS FUNCTIONS =  249
 NOTE: THIS RUN WILL RESTRICT THE MO VARIATION SPACE TO SPHERICAL HARMONICS.
 THE NUMBER OF ORBITALS KEPT IN THE VARIATIONAL SPACE WILL BE PRINTED LATER.
 NUMBER OF ELECTRONS                          =   52
 CHARGE OF MOLECULE                           =    1
 SPIN MULTIPLICITY                            =    1
 NUMBER OF OCCUPIED ORBITALS (ALPHA)          =   26
 NUMBER OF OCCUPIED ORBITALS (BETA )          =   26
 TOTAL NUMBER OF ATOMS                        =   16
 THE NUCLEAR REPULSION ENERGY IS      266.4771007768
 NOTE THIS RUN IS USING CORE POTENTIALS, AND THE NUMBER OF ELECTRONS,
 OCCUPIED ORBITALS, AND NUCLEAR REPULSION ENERGY WILL BE ADJUSTED BELOW
 AFTER REMOVAL OF THE CORE CHARGES.

     $CONTRL OPTIONS
     ---------------
 SCFTYP=MCSCF        RUNTYP=ENERGY       EXETYP=RUN     
 MPLEVL=       0     CITYP =NONE         CCTYP =NONE         VBTYP =NONE    
 MULT  =       1     ICHARG=       1     NZVAR =       0     COORD =UNIQUE  
 PP    =READ         RELWFN=NONE         LOCAL =NONE         NUMGRD=       F
 ISPHER=       1     NOSYM =       0     MAXIT =     100     UNITS =ANGS    
 PLTORB=       F     MOLPLT=       F     AIMPAC=       F     FRIEND=        
 NPRINT=       7     IREST =       0     GEOM  =INPUT   
 NORMF =       0     NORMP =       0     ITOL  =      20     ICUT  =       9
 INTTYP=BEST         GRDTYP=BEST         QMTTOL= 1.0E-06

     $SYSTEM OPTIONS
     ---------------
  REPLICATED MEMORY=     1000000 WORDS (ON EVERY NODE).
 DISTRIBUTED MEMDDI=           0 MILLION WORDS IN AGGREGATE,
 MEMDDI DISTRIBUTED OVER   1 PROCESSORS IS           0 WORDS/PROCESSOR.
 TOTAL MEMORY REQUESTED ON EACH PROCESSOR=     1000000 WORDS.
 TIMLIM=      525600.00 MINUTES, OR   365.00 DAYS.
 PARALL= F  BALTYP=  NXTVAL  KDIAG=    0  COREFL= F

          --------------
          ECP POTENTIALS
          --------------

 PARAMETERS FOR "H       " ON ATOM    1 WITH ZCORE   0 AND LMAX  0 ARE
 FOR L= 0      COEFF    N           ZETA
    1        1.00000    1        4.47692
    2        4.47692    3        2.97636
    3       -4.32112    2        3.01842

 PARAMETERS FOR "H       " ON ATOM    2 ARE THE SAME AS ATOM   1

 PARAMETERS FOR "H       " ON ATOM    3 ARE THE SAME AS ATOM   1

 PARAMETERS FOR "H       " ON ATOM    4 ARE THE SAME AS ATOM   1

 PARAMETERS FOR "H       " ON ATOM    5 ARE THE SAME AS ATOM   1

 PARAMETERS FOR "H       " ON ATOM    6 ARE THE SAME AS ATOM   1

 PARAMETERS FOR "H       " ON ATOM    7 ARE THE SAME AS ATOM   1

 PARAMETERS FOR "H       " ON ATOM    8 ARE THE SAME AS ATOM   1

 PARAMETERS FOR "H       " ON ATOM    9 ARE THE SAME AS ATOM   1

 PARAMETERS FOR "C       " ON ATOM   10 WITH ZCORE   2 AND LMAX  1 ARE
 FOR L= 1      COEFF    N           ZETA
    1        4.00000    1        8.35974
    2       33.43895    3        4.48362
    3      -19.17537    2        3.93831
 FOR L= 0      COEFF    N           ZETA
    1       22.55164    2        5.02992

 PARAMETERS FOR "C       " ON ATOM   11 ARE THE SAME AS ATOM  10

 PARAMETERS FOR "C       " ON ATOM   12 ARE THE SAME AS ATOM  10

 PARAMETERS FOR "C       " ON ATOM   13 ARE THE SAME AS ATOM  10

 PARAMETERS FOR "C       " ON ATOM   14 ARE THE SAME AS ATOM  10

 PARAMETERS FOR "N       " ON ATOM   15 WITH ZCORE   2 AND LMAX  1 ARE
 FOR L= 1      COEFF    N           ZETA
    1        5.00000    1        9.23501
    2       46.17505    3        7.66830
    3      -30.18894    2        7.34486
 FOR L= 0      COEFF    N           ZETA
    1       31.69720    2        6.99537

 PARAMETERS FOR "N       " ON ATOM   16 ARE THE SAME AS ATOM  15

 THE ECP RUN REMOVES   14 CORE ELECTRONS, AND THE SAME NUMBER OF PROTONS.
 NUMBER OF ELECTRONS KEPT IN THE CALCULATION IS =   38
 NUMBER OF OCCUPIED ORBITALS (ALPHA) KEPT IS    =   19
 NUMBER OF OCCUPIED ORBITALS (BETA ) KEPT IS    =   19
 THE ADJUSTED NUCLEAR REPULSION ENERGY=      144.0584491924
          ECP ANGULAR INTS.........     0.00 SECONDS

          ----------------
          PROPERTIES INPUT
          ----------------

     MOMENTS            FIELD           POTENTIAL          DENSITY
 IEMOM =       1   IEFLD =       0   IEPOT =       0   IEDEN =       0
 WHERE =COMASS     WHERE =NUCLEI     WHERE =NUCLEI     WHERE =NUCLEI  
 OUTPUT=BOTH       OUTPUT=BOTH       OUTPUT=BOTH       OUTPUT=BOTH    
 IEMINT=       0   IEFINT=       0                     IEDINT=       0
                                                       MORB  =       0

     -------------------------------
     INTEGRAL TRANSFORMATION OPTIONS
     -------------------------------
     NWORD  =       0     CUTOFF = 1.0E-09
     MPTRAN =       0     DIRTRF =       F
     AOINTS =DUP     

          ----------------------
          MCSCF INPUT PARAMETERS
          ----------------------
 CONVERGER SELECTION: FOCAS = F  SOSCF = T  FULLNR = F  QUD = F  JACOBI = F
 SECULAR EQUATION METHOD CISTEP = GUGA    
 --- GENERAL INPUT OPTIONS:
 MAXIT =    1000  MICIT =       5  ACURCY= 1.000E-05
 DAMP  =   0.000  CANONC=       T  ENGTOL= 1.000E-10
 EKT   =       F  NPUNCH=       2  NWORD =         0
 --- INPUT FOR SOSCF CONVERGER:
 FORS  =       T  NOFO  =       1

          ----------------------
          INTEGRAL INPUT OPTIONS
          ----------------------
 NOPK  =       1 NORDER=       0 SCHWRZ=       T

     ------------------------------------------
     THE POINT GROUP IS C1 , NAXIS= 0, ORDER= 1
     ------------------------------------------

 -- VARIATIONAL SPACE WILL BE RESTRICTED TO PURE SPHERICAL HARMONICS ONLY --
 AFTER EXCLUDING CONTAMINANT COMBINATIONS FROM THE CARTESIAN GAUSSIAN BASIS
 SET, THE NUMBER OF SPHERICAL HARMONICS KEPT IN THE VARIATION SPACE IS  235

     DIMENSIONS OF THE SYMMETRY SUBSPACES ARE
 A   =  235

 ..... DONE SETTING UP THE RUN .....
 STEP CPU TIME =     0.06 TOTAL CPU TIME =        0.1 (    0.0 MIN)
 TOTAL WALL CLOCK TIME=        0.0 SECONDS, CPU UTILIZATION IS 100.00%

          ********************
          1 ELECTRON INTEGRALS
          ********************
 TIME TO DO ORDINARY INTEGRALS=      0.10
 TIME TO DO      ECP INTEGRALS=      0.83
 TIME TO DO   DIPOLE INTEGRALS=      0.02
 ...... END OF ONE-ELECTRON INTEGRALS ......
 STEP CPU TIME =     0.95 TOTAL CPU TIME =        1.0 (    0.0 MIN)
 TOTAL WALL CLOCK TIME=        0.0 SECONDS, CPU UTILIZATION IS 100.00%

          -------------
          GUESS OPTIONS
          -------------
          GUESS =MOREAD            NORB  =     235          NORDER=       0
          MIX   =       F          PRTMO =       F          PUNMO =       F
          TOLZ  = 1.0E-08          TOLE  = 1.0E-05
          SYMDEN=       F          PURIFY=       F

 INITIAL GUESS ORBITALS GENERATED BY MOREAD   ROUTINE.

 STATISTICS FOR GENERATION OF SYMMETRY ORBITAL -Q- MATRIX
 NUMBER OF CARTESIAN ATOMIC ORBITALS=        249
 NUMBER OF SPHERICAL CONTAMINANTS DROPPED=    14
 NUMBER OF LINEARLY DEPENDENT MOS DROPPED=     0
 TOTAL NUMBER OF MOS IN VARIATION SPACE=     235

                    * * * * * WARNING * * * * *
 POSSIBLE LINEAR DEPENDENCE PROBLEMS DETECTED, INPUT QMTTOL= 1.0E-06,
 WITH     3 OVERLAP EIGENVALUES LYING BETWEEN 1.0E-05 AND QMTTOL.
 IF YOU EXPERIENCE SCF CONVERGENCE DIFFICULTIES WITH THE DENSITY ALMOST BUT
 NOT QUITE CONVERGED, YOU MAY NEED TO LOOSEN -QMTTOL- BY A FACTOR 5 TO 10.

 SYMMETRIES FOR INITIAL GUESS ORBITALS FOLLOW.   BOTH SET(S).
    20 ORBITALS ARE OCCUPIED (    0 CORE ORBITALS).
     1=A        2=A        3=A        4=A        5=A        6=A        7=A   
     8=A        9=A       10=A       11=A       12=A       13=A       14=A   
    15=A       16=A       17=A       18=A       19=A       20=A       21=A   
    22=A       23=A       24=A       25=A       26=A       27=A       28=A   
    29=A       30=A       31=A       32=A       33=A       34=A       35=A   
    36=A       37=A       38=A       39=A       40=A       41=A       42=A   
    43=A       44=A       45=A       46=A       47=A       48=A       49=A   
    50=A       51=A       52=A       53=A       54=A       55=A       56=A   
    57=A       58=A       59=A       60=A       61=A       62=A       63=A   
    64=A       65=A       66=A       67=A       68=A       69=A       70=A   
    71=A       72=A       73=A       74=A       75=A       76=A       77=A   
    78=A       79=A       80=A       81=A       82=A       83=A       84=A   
    85=A       86=A       87=A       88=A       89=A       90=A       91=A   
    92=A       93=A       94=A       95=A       96=A       97=A       98=A   
    99=A      100=A      101=A      102=A      103=A      104=A      105=A   
   106=A      107=A      108=A      109=A      110=A      111=A      112=A   
   113=A      114=A      115=A      116=A      117=A      118=A      119=A   
   120=A      121=A      122=A      123=A      124=A      125=A      126=A   
   127=A      128=A      129=A      130=A      131=A      132=A      133=A   
   134=A      135=A      136=A      137=A      138=A      139=A      140=A   
   141=A      142=A      143=A      144=A      145=A      146=A      147=A   
   148=A      149=A      150=A      151=A      152=A      153=A      154=A   
   155=A      156=A      157=A      158=A      159=A      160=A      161=A   
   162=A      163=A      164=A      165=A      166=A      167=A      168=A   
   169=A      170=A      171=A      172=A      173=A      174=A      175=A   
   176=A      177=A      178=A      179=A      180=A      181=A      182=A   
   183=A      184=A      185=A      186=A      187=A      188=A      189=A   
   190=A      191=A      192=A      193=A      194=A      195=A      196=A   
   197=A      198=A      199=A      200=A      201=A      202=A      203=A   
   204=A      205=A      206=A      207=A      208=A      209=A      210=A   
   211=A      212=A      213=A      214=A      215=A      216=A      217=A   
   218=A      219=A      220=A      221=A      222=A      223=A      224=A   
   225=A      226=A      227=A      228=A      229=A      230=A      231=A   
   232=A      233=A      234=A      235=A   
 ...... END OF INITIAL ORBITAL SELECTION ......
 STEP CPU TIME =     0.08 TOTAL CPU TIME =        1.1 (    0.0 MIN)
 TOTAL WALL CLOCK TIME=        0.0 SECONDS, CPU UTILIZATION IS 100.00%

                    ----------------------
                    AO INTEGRAL TECHNOLOGY
                    ----------------------
     S,P,L SHELL ROTATED AXIS INTEGRALS, REPROGRAMMED BY
        KAZUYA ISHIMURA (IMS) AND JOSE SIERRA (SYNSTAR).
     S,P,D,L SHELL ROTATED AXIS INTEGRALS PROGRAMMED BY
        KAZUYA ISHIMURA (INSTITUTE FOR MOLECULAR SCIENCE).
     S,P,D,F,G SHELL TO TOTAL QUARTET ANGULAR MOMENTUM SUM 5,
        ERIC PROGRAM BY GRAHAM FLETCHER (ELORET AND NASA ADVANCED
        SUPERCOMPUTING DIVISION, AMES RESEARCH CENTER).
     S,P,D,F,G,L SHELL GENERAL RYS QUADRATURE PROGRAMMED BY
        MICHEL DUPUIS (PACIFIC NORTHWEST NATIONAL LABORATORY).

          --------------------
          2 ELECTRON INTEGRALS
          --------------------

 THE -PK- OPTION IS OFF, THE INTEGRALS ARE NOT IN SUPERMATRIX FORM.
 STORING   15000 INTEGRALS/RECORD ON DISK, USING 12 BYTES/INTEGRAL.
 TWO ELECTRON INTEGRAL EVALUATION REQUIRES   95547 WORDS OF MEMORY.
 SCHWARZ INEQUALITY OVERHEAD:     31017 INTEGRALS, T=        0.16
 II,JST,KST,LST =  1  1  1  1 NREC =         1 INTLOC =    1
 II,JST,KST,LST =  2  1  1  1 NREC =         1 INTLOC =    2
 II,JST,KST,LST =  3  1  1  1 NREC =         1 INTLOC =    7
 II,JST,KST,LST =  4  1  1  1 NREC =         1 INTLOC =   34
 II,JST,KST,LST =  5  1  1  1 NREC =         1 INTLOC =   67
 II,JST,KST,LST =  6  1  1  1 NREC =         1 INTLOC =  214
 II,JST,KST,LST =  7  1  1  1 NREC =         1 INTLOC =  529
 II,JST,KST,LST =  8  1  1  1 NREC =         1 INTLOC =  960
 II,JST,KST,LST =  9  1  1  1 NREC =         1 INTLOC = 2759
 II,JST,KST,LST = 10  1  1  1 NREC =         1 INTLOC = 3764
 II,JST,KST,LST = 11  1  1  1 NREC =         1 INTLOC = 7491
 II,JST,KST,LST = 12  1  1  1 NREC =         1 INTLOC = 9438
 II,JST,KST,LST = 13  1  1  1 NREC =         1 INTLOC =11734
 II,JST,KST,LST = 14  1  1  1 NREC =         2 INTLOC = 4519
 II,JST,KST,LST = 15  1  1  1 NREC =         2 INTLOC = 8267
 II,JST,KST,LST = 16  1  1  1 NREC =         3 INTLOC = 5470
 II,JST,KST,LST = 17  1  1  1 NREC =         3 INTLOC =12044
 II,JST,KST,LST = 18  1  1  1 NREC =         4 INTLOC = 4435
 II,JST,KST,LST = 19  1  1  1 NREC =         5 INTLOC =13429
 II,JST,KST,LST = 20  1  1  1 NREC =         6 INTLOC = 9169
 II,JST,KST,LST = 21  1  1  1 NREC =         8 INTLOC =13306
 II,JST,KST,LST = 22  1  1  1 NREC =         9 INTLOC =13255
 II,JST,KST,LST = 23  1  1  1 NREC =        10 INTLOC =14572
 II,JST,KST,LST = 24  1  1  1 NREC =        14 INTLOC = 5076
 II,JST,KST,LST = 25  1  1  1 NREC =        15 INTLOC =11742
 II,JST,KST,LST = 26  1  1  1 NREC =        20 INTLOC = 2945
 II,JST,KST,LST = 27  1  1  1 NREC =        22 INTLOC = 1813
 II,JST,KST,LST = 28  1  1  1 NREC =        24 INTLOC = 2682
 II,JST,KST,LST = 29  1  1  1 NREC =        30 INTLOC = 6627
 II,JST,KST,LST = 30  1  1  1 NREC =        33 INTLOC = 1027
 II,JST,KST,LST = 31  1  1  1 NREC =        40 INTLOC =14124
 II,JST,KST,LST = 32  1  1  1 NREC =        44 INTLOC = 2542
 II,JST,KST,LST = 33  1  1  1 NREC =        47 INTLOC = 6087
 II,JST,KST,LST = 34  1  1  1 NREC =        57 INTLOC = 7367
 II,JST,KST,LST = 35  1  1  1 NREC =        61 INTLOC =10871
 II,JST,KST,LST = 36  1  1  1 NREC =        73 INTLOC = 9688
 II,JST,KST,LST = 37  1  1  1 NREC =        78 INTLOC = 9682
 II,JST,KST,LST = 38  1  1  1 NREC =        83 INTLOC = 8737
 II,JST,KST,LST = 39  1  1  1 NREC =        99 INTLOC = 1078
 II,JST,KST,LST = 40  1  1  1 NREC =       105 INTLOC = 7553
 II,JST,KST,LST = 41  1  1  1 NREC =       123 INTLOC =  255
 II,JST,KST,LST = 42  1  1  1 NREC =       130 INTLOC = 3030
 II,JST,KST,LST = 43  1  1  1 NREC =       136 INTLOC =14441
 II,JST,KST,LST = 44  1  1  1 NREC =       158 INTLOC =13493
 II,JST,KST,LST = 45  1  1  1 NREC =       168 INTLOC = 1026
 II,JST,KST,LST = 46  1  1  1 NREC =       191 INTLOC = 4458
 II,JST,KST,LST = 47  1  1  1 NREC =       201 INTLOC =14179
 II,JST,KST,LST = 48  1  1  1 NREC =       213 INTLOC =  921
 II,JST,KST,LST = 49  1  1  1 NREC =       244 INTLOC =14841
 II,JST,KST,LST = 50  1  1  1 NREC =       280 INTLOC = 5805
 II,JST,KST,LST = 51  1  1  1 NREC =       361 INTLOC = 3719
 II,JST,KST,LST = 52  1  1  1 NREC =       378 INTLOC = 1358
 II,JST,KST,LST = 53  1  1  1 NREC =       426 INTLOC = 9921
 II,JST,KST,LST = 54  1  1  1 NREC =       536 INTLOC =13549
 II,JST,KST,LST = 55  1  1  1 NREC =       559 INTLOC = 7276
 II,JST,KST,LST = 56  1  1  1 NREC =       582 INTLOC =12276
 II,JST,KST,LST = 57  1  1  1 NREC =       650 INTLOC = 2302
 II,JST,KST,LST = 58  1  1  1 NREC =       723 INTLOC = 2123
 II,JST,KST,LST = 59  1  1  1 NREC =       884 INTLOC = 5972
 II,JST,KST,LST = 60  1  1  1 NREC =       917 INTLOC =   13
 II,JST,KST,LST = 61  1  1  1 NREC =      1011 INTLOC = 4021
 II,JST,KST,LST = 62  1  1  1 NREC =      1220 INTLOC = 5928
 II,JST,KST,LST = 63  1  1  1 NREC =      1261 INTLOC = 6424
 II,JST,KST,LST = 64  1  1  1 NREC =      1303 INTLOC = 8355
 II,JST,KST,LST = 65  1  1  1 NREC =      1424 INTLOC =14902
 II,JST,KST,LST = 66  1  1  1 NREC =      1554 INTLOC = 9528
 II,JST,KST,LST = 67  1  1  1 NREC =      1836 INTLOC =  231
 II,JST,KST,LST = 68  1  1  1 NREC =      1891 INTLOC = 5256
 II,JST,KST,LST = 69  1  1  1 NREC =      2051 INTLOC =   91
 II,JST,KST,LST = 70  1  1  1 NREC =      2398 INTLOC =12420
 II,JST,KST,LST = 71  1  1  1 NREC =      2466 INTLOC = 6119
 II,JST,KST,LST = 72  1  1  1 NREC =      2535 INTLOC = 7480
 II,JST,KST,LST = 73  1  1  1 NREC =      2734 INTLOC =12904
 II,JST,KST,LST = 74  1  1  1 NREC =      2945 INTLOC = 3406
 II,JST,KST,LST = 75  1  1  1 NREC =      3381 INTLOC =14358
 II,JST,KST,LST = 76  1  1  1 NREC =      3469 INTLOC =10652
 II,JST,KST,LST = 77  1  1  1 NREC =      3723 INTLOC = 1221
 II,JST,KST,LST = 78  1  1  1 NREC =      4266 INTLOC = 9855
 II,JST,KST,LST = 79  1  1  1 NREC =      4369 INTLOC =12162
 II,JST,KST,LST = 80  1  1  1 NREC =      4474 INTLOC =14747
 II,JST,KST,LST = 81  1  1  1 NREC =      4777 INTLOC =13894
 II,JST,KST,LST = 82  1  1  1 NREC =      5094 INTLOC =13976
 II,JST,KST,LST = 83  1  1  1 NREC =      5724 INTLOC =12241
 II,JST,KST,LST = 84  1  1  1 NREC =      5854 INTLOC = 3520
 II,JST,KST,LST = 85  1  1  1 NREC =      6227 INTLOC = 4289
 II,JST,KST,LST = 86  1  1  1 NREC =      7017 INTLOC = 6812
 II,JST,KST,LST = 87  1  1  1 NREC =      7162 INTLOC = 1282
 II,JST,KST,LST = 88  1  1  1 NREC =      7306 INTLOC = 3250
 II,JST,KST,LST = 89  1  1  1 NREC =      7733 INTLOC = 1213
 II,JST,KST,LST = 90  1  1  1 NREC =      8154 INTLOC = 9241
 II,JST,KST,LST = 91  1  1  1 NREC =      8953 INTLOC =  617
 II,JST,KST,LST = 92  1  1  1 NREC =      9134 INTLOC = 6066
 II,JST,KST,LST = 93  1  1  1 NREC =      9657 INTLOC = 3312
 II,JST,KST,LST = 94  1  1  1 NREC =     10684 INTLOC = 4098
 II,JST,KST,LST = 95  1  1  1 NREC =     10872 INTLOC =  168
 II,JST,KST,LST = 96  1  1  1 NREC =     11055 INTLOC =14190
 II,JST,KST,LST = 97  1  1  1 NREC =     11614 INTLOC =10529
 II,JST,KST,LST = 98  1  1  1 NREC =     12142 INTLOC =10998
 II,JST,KST,LST = 99  1  1  1 NREC =     13117 INTLOC = 6823
 II,JST,KST,LST =100  1  1  1 NREC =     13358 INTLOC = 1447
 II,JST,KST,LST =101  1  1  1 NREC =     14049 INTLOC =11501
 SCHWARZ INEQUALITY TEST SKIPPED    274126 INTEGRAL BLOCKS.
 TOTAL NUMBER OF NONZERO TWO-ELECTRON INTEGRALS =           229678024
      15312 INTEGRAL RECORDS WERE STORED ON DISK FILE  8.
  ...... END OF TWO-ELECTRON INTEGRALS .....
 STEP CPU TIME =    86.96 TOTAL CPU TIME =       88.0 (    1.5 MIN)
 TOTAL WALL CLOCK TIME=       88.0 SECONDS, CPU UTILIZATION IS 100.06%

          -----------------
          MCSCF CALCULATION
          -----------------

 ----- NUCLEAR ENERGY ----- =       144.0584491924

          -----------------------     ----------------------------
          GUGA DISTINCT ROW TABLE     WRITTEN BY B.R.BROOKS,P.SAXE
          -----------------------     ----------------------------

      GROUP=C1           NPRT=       2
       FORS=       T   INTACT=       F
       FOCI=       F   MXNINT=  600000
       SOCI=       F   MXNEME=   10000
     IEXCIT=       0

      -CORE-    -INTERNAL-  -EXTERNAL-
     NFZC=   0   NDOC=   1   NEXT=   0
     NMCC=  18   NAOS=   0   NFZV=   0
                 NBOS=   0
                 NALP=   0
                 NVAL=   1

 THE MAXIMUM ELECTRON EXCITATION WILL BE   2

 SYMMETRIES FOR THE  18 CORE,   2 ACTIVE,   0 EXTERNAL MO-S ARE
     CORE= A     A     A     A     A     A     A     A     A     A   
           A     A     A     A     A     A     A     A   
   ACTIVE= A     A   
           DOC   VAL 

 MOLECULAR CHARGE          =    1
 NUMBER OF ALPHA ELECTRONS =   19
 NUMBER OF  BETA ELECTRONS =   19

 THE ELECTRONIC STATE IS  1-A   

 THE DISTINCT ROW TABLE HAS         5 ROWS.
  THE WAVEFUNCTION CONTAINS         3 WALKS (CSF-S).


          DETERMINANT CONTRIBUTION TO CSF'S (BETA IS MINUS)
          -------------------------------------------------
 CASE VECTOR =       1
 14

 FOR MS=S-0
 CSF      1: C(  1)= 1.000000 :   19-19
 CASE VECTOR =       2
 23

 FOR MS=S-0
 CSF      2: C(  1)=-0.707107 :  -20 19
             C(  2)= 0.707107 :   20-19
 CASE VECTOR =       3
 41

 FOR MS=S-0
 CSF      3: C(  1)= 1.000000 :   20-20

 TOTAL NUMBER OF INTEGRALS =          9
 NUMBER OF INTEGRALS/GROUP =          9
 NUMBER OF INTEGRAL GROUPS =          1
 MAXIMUM RECORD SIZES ARE     200 FOR UNIT 11      22 FOR UNIT 12
                            30001 FOR UNIT 15   30001 FOR UNIT 16
 ...... END OF -DRT- GENERATION ...... 
 STEP CPU TIME =     0.00 TOTAL CPU TIME =       88.0 (    1.5 MIN)
 TOTAL WALL CLOCK TIME=       88.0 SECONDS, CPU UTILIZATION IS 100.06%
 OPENING FILE DAFL30 WITH      81 LOGICAL RECORDS OF   62001 WORDS
 WITH A MAXIMUM OF        2511 PHYSICAL RECORDS OF    2048 WORDS

          ------------------------------
          CASSCF INTEGRAL TRANSFORMATION
          ------------------------------
 AO INTEGRALS WILL BE READ IN FROM DISK...
 MEMORY WHICH WOULD BE NEEDED FOR SINGLE PASS TRANSFORMATION =   15841501

 ----- CHOOSING TWO STEPS TRANSFORMATION -----
 NUMBER OF WORDS USED      =     341251
 NUMBER OF WORDS AVAILABLE =    1000000

 ----- NUCLEAR REPULSION ENERGY =    144.05844919
 ----- FROZEN CORE ENERGY       =   -194.99482871

 ... SYMMETRY ...           CPU =    0.03
 ... (PQ|RS) -> (PQ|KL) ... CPU =    6.31
 ... (PQ|KL) -> (IJ|KL) ... CPU =    0.01

 NUMBER OF (PQ|KL) INTEGRALS WRITTEN      54993
 NUMBER OF (IJ|KL) INTEGRALS WRITTEN          6
 ..... END OF CAS INTEGRAL TRANSFORMATION .....
 STEP CPU TIME =     6.35 TOTAL CPU TIME =       94.4 (    1.6 MIN)
 TOTAL WALL CLOCK TIME=       94.0 SECONDS, CPU UTILIZATION IS 100.43%

          ------------------------
          GUGA-CI INTEGRAL SORTING
          ------------------------

    630017 WORDS NEEDED TO SORT              9 GUGA INTEGRALS IN MEMORY
   1000000 WORDS ARE AVAILABLE
 CHOOSING IN-MEMORY SORTING...
 IN CORE ALGORITHM SORTED              3 NON-ZERO 1E- INTEGRALS
 IN CORE ALGORITHM SORTED              6 NON-ZERO 2E- INTEGRALS
 ...... END OF INTEGRAL SORTING ...... 
 STEP CPU TIME =     0.01 TOTAL CPU TIME =       94.4 (    1.6 MIN)
 TOTAL WALL CLOCK TIME=       94.0 SECONDS, CPU UTILIZATION IS 100.44%

 -------------------------     ---------------------------------------
 ENERGY MATRIX CALCULATION     WRITTEN BY B.R.BROOKS,W.D.LAIDIG,P.SAXE
 -------------------------     ---------------------------------------

 COMPUTING THE HAMILTONIAN FOR THE         3 CSF-S...

           8 IS THE TOTAL NUMBER OF GENERATED LOOPS
           8 WERE CREATED BY THE LOOP-DRIVEN ALGORITHM
           0 WERE CREATED IMPLICITLY

           8 IS THE TOTAL NUMBER OF PROCESSED LOOPS
           5     DIAGONAL LOOPS ARE STORED ON WORK15 IN     1 BUFFERS OF  10000 ELEMENTS.
           3 OFF DIAGONAL LOOPS ARE STORED ON WORK16 IN     1 BUFFERS OF  10000 ELEMENTS.
 ...... END OF ENERGY MATRIX CALCULATION ...... 
 STEP CPU TIME =     0.00 TOTAL CPU TIME =       94.4 (    1.6 MIN)
 TOTAL WALL CLOCK TIME=       94.0 SECONDS, CPU UTILIZATION IS 100.44%

          -----------------------------------------
          DAVIDSON METHOD CI-MATRIX DIAGONALIZATION
                   WRITTEN BY STEVE ELBERT
          -----------------------------------------
 NUMBER OF STATES REQUESTED =     2
 MAX. NUMB. OF EXPAN. VEC   =    30
 MAX. NUMB. IMPROVED STATES =     2
 MAX. NUMB. OF ITERATIONS   =    50
 CONVERGENCE CRITERION      =    1.0E-05

 CHOOSING TO SOLVE SECULAR EQUATION IN MEMORY
 NUMBER OF WORDS AVAILABLE =    1000000
 NUMBER OF WORDS USED      =      31026
 ENERGY MATRIX BUFFER SIZE =      10000
 SOLUTION FOUND WITH DIRECT METHOD

 STATE #    1  ENERGY =     -52.105603510

      CSF      COEF    OCCUPANCY (IGNORING CORE)
      ---      ----    --------- --------- -----
        1    0.992950  20
        3   -0.118538  02

 STATE #    2  ENERGY =     -51.895369879

      CSF      COEF    OCCUPANCY (IGNORING CORE)
      ---      ----    --------- --------- -----
        2    1.000000  11

 RENORMALIZED DAVIDSON CORRECTION FOR     1-REFERENCE CI.
 C0SQ= 0.985949 EREF=      -52.100166 E-E(REF)=   0.005437 E(Q)=   0.000077
 GIVES A E(SD+Q) ESTIMATE OF      -52.1056810016
 ...... END OF CI-MATRIX DIAGONALIZATION ......
 STEP CPU TIME =     0.00 TOTAL CPU TIME =       94.4 (    1.6 MIN)
 TOTAL WALL CLOCK TIME=       94.0 SECONDS, CPU UTILIZATION IS 100.44%

          -------------------------------------
          2-PARTICLE DENSITY MATRIX CALCULATION
          -------------------------------------
 2 BODY DENSITY IS AN AVERAGE OF  2 STATE(S).
   STATE    WEIGHT          ENERGY
     1    0.500000      -52.1056035104
     2    0.500000      -51.8953698787
            8 -DM2- LOOPS WERE GENERATED
            8 WERE CREATED BY THE LOOP-DRIVEN ALGORITHM
            0 WERE CREATED IMPLICITLY
          1 RECORDS OF LENGTH600000 WRITTEN TO FILE 15
 ...... END OF 2-PARTICLE DENSITY MATRIX CALCULATION ......
 STEP CPU TIME =     0.00 TOTAL CPU TIME =       94.4 (    1.6 MIN)
 TOTAL WALL CLOCK TIME=       94.0 SECONDS, CPU UTILIZATION IS 100.44%

          ----------------------------------
          2-PARTICLE DENSITY MATRIX LABELING
          ----------------------------------
     646608 WORDS NEEDED TO LABEL DM2 MATRIX
          1 RECORDS OF LENGTH600000  READ FROM FILE 15
          1 RECORDS OF LENGTH 15000 WRITTEN TO FILE 16
 ...... END OF 2-PARTICLE DENSITY MATRIX LABELING ......
 STEP CPU TIME =     0.00 TOTAL CPU TIME =       94.4 (    1.6 MIN)
 TOTAL WALL CLOCK TIME=       94.0 SECONDS, CPU UTILIZATION IS 100.44%

          --------------
          -DM2- ORDERING
          --------------
      30010 WORDS NEEDED (   1000000 AVAILABLE) TO ORDER DM2 IN MEMORY
 CHOOSING IN MEMORY ORDERING...
                               1 RECORDS OF LENGTH 15000  READ FROM FILE 16
          6 DM2 VALUES IN      1 RECORDS OF LENGTH 15000 WRITTEN TO FILE 15
 ...... END OF -DM2- ORDERING ...... 
 STEP CPU TIME =     0.00 TOTAL CPU TIME =       94.4 (    1.6 MIN)
 TOTAL WALL CLOCK TIME=       94.0 SECONDS, CPU UTILIZATION IS 100.44%

          --------------------------------------
          APPROXIMATE SECOND-ORDER MCSCF PROGRAM
          --------------------------------------
          PROGRAM WRITTEN BY G.CHABAN, A.MARQUEZ, AND M.DUPUIS

  NUMBER OF WORDS NEEDED     =     491057
  NUMBER AVAILABLE           =    1000000

 ----- GAMMA(IJKL)*(PQ|KL) PRODUCTS ----- CPU TIME =      0.000
 ----- ORBITAL SYMMETRY             ----- CPU TIME =      0.010
 ----- FOCK OPERATORS CONSTRUCTION  ----- CPU TIME =      2.490
 ----- WARNING : CORE-ACTIVE GAP    =    0.33974
 ----- WARNING : ACTIVE-VIRTUAL GAP =    0.36873
     MICIT =   1 ASYMM =    0.027682 ROTMAX =    0.013222
 ----- EFFECTIVE FOCK + ROTATE ORBS ----- CPU TIME =      0.040
     MICIT =   2 ASYMM =    0.019549 ROTMAX =    0.002955
     MICIT =   3 ASYMM =    0.017732 ROTMAX =    0.004306
     MICIT =   4 ASYMM =    0.015086 ROTMAX =    0.004519
     MICIT =   5 ASYMM =    0.012491 ROTMAX =    0.003955
 ..... DONE WITH CASSCF ORBITAL UPDATE .....
 STEP CPU TIME =     2.86 TOTAL CPU TIME =       97.3 (    1.6 MIN)
 TOTAL WALL CLOCK TIME=       96.0 SECONDS, CPU UTILIZATION IS 101.32%

 ITER     TOTAL ENERGY      DEL(E)  LAGRANGIAN ASYMMETRY   SQCDF  MICIT   DAMP
   1      -52.000486695 -0.000486695  0.027682   20   18 1.322E-02  5   0.0000
       ----------START APPROXIMATE SECOND ORDER MCSCF----------
   2      -52.005829578 -0.005342884  0.010796   20   18 1.722E-03  1   0.0000
   3      -52.006698226 -0.000868647  0.002635   20   18 1.306E-03  1   0.0000
   4      -52.006925398 -0.000227173  0.001573   50   18 2.129E-04  1   0.0000
   5      -52.006977882 -0.000052483  0.000804   20   18 3.672E-04  1   0.0000
   6      -52.007006446 -0.000028564  0.000414   49   15 1.428E-05  1   0.0000
   7      -52.007009749 -0.000003304  0.000240   50   18 3.639E-06  1   0.0000
   8      -52.007010457 -0.000000707  0.000065   49   18 5.173E-07  1   0.0000
   9      -52.007010543 -0.000000086  0.000022   27   18 9.991E-08  1   0.0000
  10      -52.007010557 -0.000000014  0.000011   27   18 2.475E-08  1   0.0000
  11      -52.007010560 -0.000000003  0.000005   49   18 1.611E-09  1   0.0000

          --------------------
          LAGRANGIAN CONVERGED
          --------------------

 FINAL MCSCF ENERGY IS      -52.0070105597 AFTER  11 ITERATIONS

 -MCCI- BASED ON OPTIMIZED ORBITALS
 ----------------------------------

 PLEASE NOTE: IF THE ACTIVE ORBITALS ARE CANONICALIZED BELOW,
 THE FOLLOWING CI EXPANSION COEFFICIENTS AND THE DENSITY DO NOT
 CORRESPOND TO THE PRINTED ORBITALS.  THE PRINTED EXPANSIONS MATCH
 THE ORBITALS USED DURING THE LAST ITERATION.  IF YOU WISH TO SEE
 CI EXPANSIONS BASED ON THE CANONICAL (OR NATURAL) ORBITALS, YOU
 MUST RUN A CI CALCULATION WITH THAT ORBITAL CHOICE READ IN $VEC.

 STATE #    1  ENERGY =     -52.096681575

      CSF      COEF    OCCUPANCY (IGNORING CORE)
      ---      ----    --------- --------- -----
        1    0.995128  20
        2    0.000000  11
        3   -0.098590  02

 STATE #    2  ENERGY =     -51.917339545

      CSF      COEF    OCCUPANCY (IGNORING CORE)
      ---      ----    --------- --------- -----
        1    0.000000  20
        2    1.000000  11
        3    0.000000  02

 DENSITY MATRIX OVER ACTIVE MO-S

             1           2

    1    1.4902800
    2    0.0000000   0.5097200

 FORMING THE "STANDARD FOCK OPERATOR" USING INTEGRALS FROM DISK...
    18 FILLED,    2 ACTIVE, AND  215 VIRTUAL ORBITALS  WILL BE CANONICALIZED

          ----------------------
          MCSCF NATURAL ORBITALS
          ----------------------

                      1          2          3          4          5

                   -1.4211    -1.4202    -1.2656    -1.1822    -1.0665

    1  H  1  S    0.015890   0.000000   0.127810   0.000000  -0.102070
    2  H  1  S   -0.046785   0.000000  -0.135251   0.000000   0.000026
    3  H  1  X    0.000000   0.000000   0.000000   0.000000   0.000000
    4  H  1  Y    0.000000  -0.000788   0.000000  -0.003257   0.000000
    5  H  1  Z    0.002807   0.000000   0.017279   0.000000  -0.011399
    6  H  1  S    0.041922   0.000000  -0.014121   0.000000   0.061909
    7  H  1  X    0.000000   0.000000   0.000000   0.000000   0.000000
    8  H  1  Y    0.000000   0.018573   0.000000  -0.013595   0.000000
    9  H  1  Z   -0.000262   0.000000   0.012045   0.000000   0.001453
   10  H  2  S    0.024660  -0.020574   0.090131   0.095277  -0.003656
   11  H  2  S   -0.036745  -0.001174  -0.074125  -0.013820  -0.013284
   12  H  2  X    0.000000   0.000000   0.000000   0.000000   0.000000
   13  H  2  Y   -0.000039  -0.000003   0.001720   0.000314  -0.004571
   14  H  2  Z   -0.004633   0.003754  -0.013187  -0.012269  -0.000452
   15  H  2  S   -0.007787   0.046332  -0.000823  -0.077830  -0.002059
   16  H  2  X    0.000000   0.000000   0.000000   0.000000   0.000000
   17  H  2  Y    0.000717   0.005539  -0.002834  -0.007200  -0.008018
   18  H  2  Z   -0.003153  -0.002869  -0.005962  -0.003736  -0.004556
   19  H  3  S    0.024660   0.020574   0.090131  -0.095277  -0.003656
   20  H  3  S   -0.036745   0.001173  -0.074125   0.013820  -0.013284
   21  H  3  X    0.000000   0.000000   0.000000   0.000000   0.000000
   22  H  3  Y    0.000039  -0.000003  -0.001720   0.000314   0.004571
   23  H  3  Z   -0.004633  -0.003754  -0.013187   0.012269  -0.000452
   24  H  3  S   -0.007787  -0.046332  -0.000823   0.077830  -0.002059
   25  H  3  X    0.000000   0.000000   0.000000   0.000000   0.000000
   26  H  3  Y   -0.000717   0.005539   0.002834  -0.007200   0.008018
   27  H  3  Z   -0.003153   0.002869  -0.005962   0.003736  -0.004556
   28  H  4  S    0.053112  -0.052898   0.038542   0.082728   0.131886
   29  H  4  S   -0.057385   0.036569  -0.043305  -0.002591  -0.001719
   30  H  4  X    0.000000   0.000000   0.000000   0.000000   0.000000
   31  H  4  Y   -0.001452   0.001435   0.001871   0.002907   0.000587
   32  H  4  Z    0.007784  -0.007862   0.004708   0.009630   0.013409
   33  H  4  S   -0.001211   0.019563   0.042258  -0.012881  -0.022252
   34  H  4  X    0.000000   0.000000   0.000000   0.000000   0.000000
   35  H  4  Y   -0.008665   0.016832   0.003125   0.005679   0.012572
   36  H  4  Z    0.006973  -0.003522   0.004723  -0.002815  -0.001036
   37  H  5  S    0.053112   0.052898   0.038542  -0.082728   0.131886
   38  H  5  S   -0.057385  -0.036569  -0.043305   0.002591  -0.001719
   39  H  5  X    0.000000   0.000000   0.000000   0.000000   0.000000
   40  H  5  Y    0.001452   0.001435  -0.001871   0.002907  -0.000587
   41  H  5  Z    0.007784   0.007862   0.004708  -0.009630   0.013409
   42  H  5  S   -0.001211  -0.019563   0.042258   0.012881  -0.022252
   43  H  5  X    0.000000   0.000000   0.000000   0.000000   0.000000
   44  H  5  Y    0.008665   0.016832  -0.003125   0.005679  -0.012572
   45  H  5  Z    0.006972   0.003522   0.004722   0.002815  -0.001036
   46  H  6  S    0.126879  -0.129158  -0.054297  -0.085895  -0.135048
   47  H  6  S   -0.005674   0.007092  -0.010199   0.008338   0.016269
   48  H  6  X    0.000000   0.000000   0.000000   0.000000   0.000000
   49  H  6  Y    0.004718  -0.004769  -0.001270  -0.000590   0.001703
   50  H  6  Z   -0.018054   0.018045   0.006273   0.008911   0.013072
   51  H  6  S   -0.004970   0.000375   0.000984   0.005548  -0.005606
   52  H  6  X    0.000000   0.000000   0.000000   0.000000   0.000000
   53  H  6  Y    0.006340  -0.007724   0.002632   0.002104   0.003314
   54  H  6  Z    0.002658  -0.003387  -0.011808  -0.003463  -0.000101
   55  H  7  S    0.126879   0.129158  -0.054297   0.085895  -0.135048
   56  H  7  S   -0.005674  -0.007092  -0.010199  -0.008338   0.016269
   57  H  7  X    0.000000   0.000000   0.000000   0.000000   0.000000
   58  H  7  Y   -0.004718  -0.004769   0.001270  -0.000590  -0.001703
   59  H  7  Z   -0.018054  -0.018045   0.006273  -0.008911   0.013072
   60  H  7  S   -0.004970  -0.000375   0.000984  -0.005548  -0.005606
   61  H  7  X    0.000000   0.000000   0.000000   0.000000   0.000000
   62  H  7  Y   -0.006340  -0.007724  -0.002632   0.002104  -0.003314
   63  H  7  Z    0.002658   0.003387  -0.011808   0.003463  -0.000101
   64  H  8  S    0.125142  -0.127830  -0.067135  -0.109094  -0.142783
   65  H  8  S    0.019974  -0.012319   0.013150   0.004875   0.028378
   66  H  8  X    0.000000   0.000000   0.000000   0.000000   0.000000
   67  H  8  Y    0.015631  -0.015602  -0.006344  -0.009223  -0.008248
   68  H  8  Z    0.009929  -0.010004  -0.005323  -0.008171  -0.010922
   69  H  8  S   -0.001258   0.005058  -0.000223  -0.005036  -0.000252
   70  H  8  X    0.000000   0.000000   0.000000   0.000000   0.000000
   71  H  8  Y   -0.011296   0.008104  -0.004325   0.002227  -0.002394
   72  H  8  Z   -0.009864   0.010180  -0.000223  -0.003101  -0.002328
   73  H  9  S    0.125142   0.127830  -0.067135   0.109094  -0.142783
   74  H  9  S    0.019974   0.012319   0.013150  -0.004875   0.028378
   75  H  9  X    0.000000   0.000000   0.000000   0.000000   0.000000
   76  H  9  Y   -0.015631  -0.015602   0.006344  -0.009223   0.008248
   77  H  9  Z    0.009929   0.010004  -0.005323   0.008171  -0.010922
   78  H  9  S   -0.001258  -0.005058  -0.000223   0.005036  -0.000252
   79  H  9  X    0.000000   0.000000   0.000000   0.000000   0.000000
   80  H  9  Y    0.011296   0.008104   0.004325   0.002227   0.002394
   81  H  9  Z   -0.009864  -0.010180  -0.000223   0.003101  -0.002328
   82  C 10  S    0.065452   0.000000   0.571759   0.000000  -0.430260
   83  C 10  S    0.176602   0.000000  -0.000492   0.000000   0.910447
   84  C 10  X    0.000000   0.000000   0.000000   0.000000   0.000000
   85  C 10  Y    0.000000  -0.025650   0.000000   0.227560   0.000000
   86  C 10  Z   -0.007024   0.000000  -0.072782   0.000000   0.052312
   87  C 10  X    0.000000   0.000000   0.000000   0.000000   0.000000
   88  C 10  Y    0.000000   0.513679   0.000000   0.004465   0.000000
   89  C 10  Z   -0.147802   0.000000  -0.185822   0.000000  -0.230738
   90  C 10 XX   -0.001550   0.000000  -0.014851   0.000000   0.007738
   91  C 10 YY    0.005338   0.000000   0.020114   0.000000   0.000239
   92  C 10 ZZ   -0.003789   0.000000  -0.005262   0.000000  -0.007977
   93  C 10 XY    0.000000   0.000000   0.000000   0.000000   0.000000
   94  C 10 XZ    0.000000   0.000000   0.000000   0.000000   0.000000
   95  C 10 YZ    0.000000  -0.000185   0.000000  -0.016384   0.000000
   96  C 10  S    0.282932   0.000000  -0.141428   0.000000   0.419599
   97  C 10  X    0.000000   0.000000   0.000000   0.000000   0.000000
   98  C 10  Y    0.000000  -0.198095   0.000000   0.313369   0.000000
   99  C 10  Z   -0.054565   0.000000   0.003812   0.000000  -0.098463
  100  C 10 XX   -0.015204   0.000000   0.016139   0.000000  -0.076968
  101  C 10 YY   -0.059277   0.000000  -0.194243   0.000000   0.088939
  102  C 10 ZZ    0.074481   0.000000   0.178104   0.000000  -0.011971
  103  C 10 XY    0.000000   0.000000   0.000000   0.000000   0.000000
  104  C 10 XZ    0.000000   0.000000   0.000000   0.000000   0.000000
  105  C 10 YZ    0.000000  -0.125731   0.000000   0.019152   0.000000
  106  C 11  S    0.114127  -0.097711   0.440096   0.462672   0.012879
  107  C 11  S    0.103590  -0.367933  -0.003089  -0.710330  -0.111784
  108  C 11  X    0.000000   0.000000   0.000000   0.000000   0.000000
  109  C 11  Y    0.035273  -0.042227  -0.072451   0.069122   0.253625
  110  C 11  Z    0.019544  -0.017864   0.074276   0.083200   0.025839
  111  C 11  X    0.000000   0.000000   0.000000   0.000000   0.000000
  112  C 11  Y    0.100413   0.355105   0.089286  -0.217030   0.237221
  113  C 11  Z    0.129656  -0.123109   0.152318  -0.194546  -0.021575
  114  C 11 XX   -0.002961   0.002857  -0.010139  -0.009736   0.000553
  115  C 11 YY    0.007637  -0.006598   0.013487   0.005252  -0.002458
  116  C 11 ZZ   -0.004676   0.003741  -0.003348   0.004484   0.001906
  117  C 11 XY    0.000000   0.000000   0.000000   0.000000   0.000000
  118  C 11 XZ    0.000000   0.000000   0.000000   0.000000   0.000000
  119  C 11 YZ    0.003801  -0.002782  -0.004362   0.005970   0.021971
  120  C 11  S   -0.197610   0.237707  -0.213429  -0.398517  -0.103513
  121  C 11  X    0.000000   0.000000   0.000000   0.000000   0.000000
  122  C 11  Y    0.040233  -0.127315  -0.047756   0.169708   0.088671
  123  C 11  Z   -0.026300   0.042352  -0.018632  -0.080098  -0.012661
  124  C 11 XX    0.001828   0.010799   0.019657   0.067311   0.008760
  125  C 11 YY   -0.075023   0.003719  -0.145224  -0.083588  -0.023514
  126  C 11 ZZ    0.073195  -0.014518   0.125567   0.016278   0.014754
  127  C 11 XY    0.000000   0.000000   0.000000   0.000000   0.000000
  128  C 11 XZ    0.000000   0.000000   0.000000   0.000000   0.000000
  129  C 11 YZ    0.011470   0.072783  -0.017607  -0.075675   0.036687
  130  C 12  S    0.114127   0.097711   0.440096  -0.462672   0.012879
  131  C 12  S    0.103590   0.367933  -0.003089   0.710330  -0.111783
  132  C 12  X    0.000000   0.000000   0.000000   0.000000   0.000000
  133  C 12  Y   -0.035273  -0.042227   0.072451   0.069122  -0.253625
  134  C 12  Z    0.019544   0.017864   0.074276  -0.083200   0.025839
  135  C 12  X    0.000000   0.000000   0.000000   0.000000   0.000000
  136  C 12  Y   -0.100413   0.355105  -0.089285  -0.217031  -0.237221
  137  C 12  Z    0.129656   0.123109   0.152319   0.194546  -0.021575
  138  C 12 XX   -0.002961  -0.002857  -0.010139   0.009736   0.000553
  139  C 12 YY    0.007637   0.006598   0.013487  -0.005252  -0.002458
  140  C 12 ZZ   -0.004676  -0.003741  -0.003348  -0.004484   0.001906
  141  C 12 XY    0.000000   0.000000   0.000000   0.000000   0.000000
  142  C 12 XZ    0.000000   0.000000   0.000000   0.000000   0.000000
  143  C 12 YZ   -0.003801  -0.002782   0.004362   0.005970  -0.021971
  144  C 12  S   -0.197610  -0.237707  -0.213429   0.398517  -0.103514
  145  C 12  X    0.000000   0.000000   0.000000   0.000000   0.000000
  146  C 12  Y   -0.040233  -0.127315   0.047756   0.169708  -0.088671
  147  C 12  Z   -0.026300  -0.042352  -0.018632   0.080098  -0.012661
  148  C 12 XX    0.001828  -0.010799   0.019657  -0.067311   0.008760
  149  C 12 YY   -0.075023  -0.003719  -0.145224   0.083588  -0.023514
  150  C 12 ZZ    0.073195   0.014518   0.125567  -0.016277   0.014754
  151  C 12 XY    0.000000   0.000000   0.000000   0.000000   0.000000
  152  C 12 XZ    0.000000   0.000000   0.000000   0.000000   0.000000
  153  C 12 YZ   -0.011470   0.072783   0.017608  -0.075675  -0.036687
  154  C 13  S    0.324548  -0.324249   0.149953   0.329244   0.438880
  155  C 13  S   -0.157242  -0.142109  -0.033294   0.432888  -0.447833
  156  C 13  X    0.000000   0.000000   0.000000   0.000000   0.000000
  157  C 13  Y    0.115548  -0.118967  -0.142806  -0.186344  -0.044671
  158  C 13  Z   -0.062985   0.062699  -0.022414  -0.043634  -0.009256
  159  C 13  X    0.000000   0.000000   0.000000   0.000000   0.000000
  160  C 13  Y    0.130293   0.044645   0.118678  -0.194012   0.124224
  161  C 13  Z    0.005980   0.065312  -0.056070  -0.137117   0.083593
  162  C 13 XX   -0.011759   0.011757  -0.003367  -0.007879  -0.008348
  163  C 13 YY    0.016947  -0.016834   0.003224   0.003775  -0.000239
  164  C 13 ZZ   -0.005188   0.005077   0.000144   0.004104   0.008587
  165  C 13 XY    0.000000   0.000000   0.000000   0.000000   0.000000
  166  C 13 XZ    0.000000   0.000000   0.000000   0.000000   0.000000
  167  C 13 YZ   -0.009799   0.009543   0.011094   0.016145   0.004695
  168  C 13  S    0.070061   0.121945   0.169904  -0.255546  -0.142523
  169  C 13  X    0.000000   0.000000   0.000000   0.000000   0.000000
  170  C 13  Y   -0.000919  -0.033794  -0.059709   0.020641   0.007436
  171  C 13  Z   -0.013813  -0.014818  -0.056039   0.021541   0.037805
  172  C 13 XX    0.005401   0.004375  -0.003151  -0.009918   0.039519
  173  C 13 YY   -0.057885   0.032454  -0.050510   0.002222  -0.044314
  174  C 13 ZZ    0.052484  -0.036829   0.053661   0.007696   0.004795
  175  C 13 XY    0.000000   0.000000   0.000000   0.000000   0.000000
  176  C 13 XZ    0.000000   0.000000   0.000000   0.000000   0.000000
  177  C 13 YZ   -0.016404  -0.031638  -0.016238   0.042784  -0.032340
[...]
   12             0.270582   0.059783   0.382287   0.463407   0.014554
   13             0.052683   0.259043   0.051577   0.109045   0.107783
   14             0.052683   0.259043   0.051577   0.109045   0.107783
   15             0.009619   0.657761   0.311523   0.126324   0.026970
   16             0.009619   0.657761   0.311523   0.126324   0.026970
 WARNING! MCSCF POPULATIONS SHOWN ABOVE ARE FOR THE NATURAL ORBITALS.
 IGNORE THE ABOVE DATA FOR MCSCF FUNCTIONS WHICH ARE NOT OF -FORS- TYPE.
 THE FOLLOWING POPULATIONS ARE CORRECT FOR ANY MCSCF WAVEFUNCTION.

               ----- POPULATIONS IN EACH AO -----
                             MULLIKEN      LOWDIN
              1  H  1  S      0.94959     0.48534
              2  H  1  S      0.06088     0.17271
              3  H  1  X      0.00924     0.02251
              4  H  1  Y      0.00632     0.01963
              5  H  1  Z      0.02632     0.04608
              6  H  1  S      0.02238     0.01870
              7  H  1  X     -0.00164     0.03275
              8  H  1  Y     -0.05758     0.03196
              9  H  1  Z     -0.01844     0.05720
             10  H  2  S      0.94944     0.48608
             11  H  2  S      0.09777     0.17753
             12  H  2  X      0.01181     0.02879
             13  H  2  Y      0.00641     0.01945
             14  H  2  Z      0.02686     0.04482
             15  H  2  S     -0.03541     0.01793
             16  H  2  X     -0.00181     0.04031
             17  H  2  Y     -0.03526     0.02548
             18  H  2  Z     -0.01009     0.05428
             19  H  3  S      0.94944     0.48608
             20  H  3  S      0.09777     0.17753
             21  H  3  X      0.01181     0.02879
             22  H  3  Y      0.00641     0.01945
             23  H  3  Z      0.02686     0.04482
             24  H  3  S     -0.03541     0.01793
             25  H  3  X     -0.00181     0.04031
             26  H  3  Y     -0.03526     0.02548
             27  H  3  Z     -0.01009     0.05428
             28  H  4  S      0.94087     0.48701
             29  H  4  S      0.13335     0.17181
             30  H  4  X      0.00817     0.02028
             31  H  4  Y      0.00537     0.01611
             32  H  4  Z      0.02614     0.04787
             33  H  4  S      0.00506     0.01679
             34  H  4  X     -0.00301     0.03051
             35  H  4  Y     -0.02172     0.02584
             36  H  4  Z     -0.01182     0.05341
             37  H  5  S      0.94087     0.48701
             38  H  5  S      0.13335     0.17181
             39  H  5  X      0.00817     0.02028
             40  H  5  Y      0.00537     0.01611
             41  H  5  Z      0.02614     0.04787
             42  H  5  S      0.00506     0.01679
             43  H  5  X     -0.00301     0.03051
             44  H  5  Y     -0.02172     0.02584
             45  H  5  Z     -0.01182     0.05341
             46  H  6  S      0.87913     0.40604
             47  H  6  S     -0.02689     0.13019
             48  H  6  X      0.02200     0.04818
             49  H  6  Y      0.01055     0.02737
             50  H  6  Z      0.03414     0.06134
             51  H  6  S      0.00153     0.01374
             52  H  6  X      0.00719     0.04909
             53  H  6  Y     -0.01878     0.02832
             54  H  6  Z      0.00279     0.06424
             55  H  7  S      0.87913     0.40604
             56  H  7  S     -0.02689     0.13019
             57  H  7  X      0.02200     0.04818
             58  H  7  Y      0.01055     0.02737
             59  H  7  Z      0.03414     0.06134
             60  H  7  S      0.00153     0.01374
             61  H  7  X      0.00719     0.04909
             62  H  7  Y     -0.01878     0.02832
             63  H  7  Z      0.00279     0.06424
             64  H  8  S      0.87546     0.40188
             65  H  8  S     -0.00558     0.13071
             66  H  8  X      0.02313     0.05006
             67  H  8  Y      0.02620     0.04676
             68  H  8  Z      0.01832     0.04034
             69  H  8  S      0.00057     0.01298
             70  H  8  X      0.00906     0.05197
             71  H  8  Y      0.00616     0.04773
             72  H  8  Z     -0.00184     0.04207
             73  H  9  S      0.87546     0.40188
             74  H  9  S     -0.00558     0.13071
             75  H  9  X      0.02313     0.05006
             76  H  9  Y      0.02620     0.04676
             77  H  9  Z      0.01832     0.04034
             78  H  9  S      0.00057     0.01298
             79  H  9  X      0.00906     0.05197
             80  H  9  Y      0.00616     0.04773
             81  H  9  Z     -0.00184     0.04207
             82  C 10  S      1.53670     0.32226
             83  C 10  S     -0.89956     0.11033
             84  C 10  X      0.84107     0.51479
             85  C 10  Y      1.18131     0.74772
             86  C 10  Z      1.21754     0.78768
             87  C 10  X     -0.02320     0.15254
             88  C 10  Y     -0.37882     0.16199
             89  C 10  Z     -0.05521     0.19347
             90  C 10 XX      0.02690     0.04576
             91  C 10 YY      0.01464     0.17402
             92  C 10 ZZ      0.02321     0.14686
             93  C 10 XY      0.00370     0.03956
             94  C 10 XZ      0.02521     0.00644
             95  C 10 YZ      0.00000     0.05455
             96  C 10  S     -0.02486     0.03805
             97  C 10  X     -0.04007     0.01737
             98  C 10  Y      0.40299     0.04003
             99  C 10  Z     -0.06090     0.02244
            100  C 10 XX      0.02387     0.00071
            101  C 10 YY     -0.00167     0.11227
            102  C 10 ZZ      0.04804     0.09312
            103  C 10 XY     -0.00171     0.12575
            104  C 10 XZ      0.10950     0.01536
            105  C 10 YZ      0.00000     0.11982
            106  C 11  S      1.50402     0.31516
            107  C 11  S     -0.90544     0.11179
            108  C 11  X      1.04845     0.64618
            109  C 11  Y      1.13903     0.72653
            110  C 11  Z      1.19635     0.77814
            111  C 11  X     -0.00978     0.17859
            112  C 11  Y     -0.13610     0.16140
            113  C 11  Z     -0.19227     0.19674
            114  C 11 XX      0.02400     0.04500
            115  C 11 YY      0.01247     0.16676
            116  C 11 ZZ      0.01137     0.14826
            117  C 11 XY      0.00507     0.02141
            118  C 11 XZ      0.02823     0.00709
            119  C 11 YZ      0.00000     0.06198
            120  C 11  S     -0.61260     0.03766
            121  C 11  X      0.00187     0.01817
            122  C 11  Y      0.26064     0.03521
            123  C 11  Z     -0.03009     0.02262
            124  C 11 XX      0.04514     0.00041
            125  C 11 YY     -0.00831     0.09452
            126  C 11 ZZ      0.02252     0.09753
            127  C 11 XY     -0.00172     0.07225
            128  C 11 XZ      0.06823     0.01454
            129  C 11 YZ      0.00000     0.11534
            130  C 12  S      1.50402     0.31516
            131  C 12  S     -0.90544     0.11179
            132  C 12  X      1.04845     0.64618
            133  C 12  Y      1.13903     0.72653
            134  C 12  Z      1.19635     0.77814
            135  C 12  X     -0.00978     0.17859
            136  C 12  Y     -0.13610     0.16140
            137  C 12  Z     -0.19227     0.19674
            138  C 12 XX      0.02400     0.04500
            139  C 12 YY      0.01247     0.16676
            140  C 12 ZZ      0.01137     0.14826
            141  C 12 XY      0.00507     0.02141
            142  C 12 XZ      0.02823     0.00709
            143  C 12 YZ      0.00000     0.06198
            144  C 12  S     -0.61260     0.03766
            145  C 12  X      0.00187     0.01817
            146  C 12  Y      0.26064     0.03521
            147  C 12  Z     -0.03009     0.02262
            148  C 12 XX      0.04514     0.00041
            149  C 12 YY     -0.00831     0.09452
            150  C 12 ZZ      0.02252     0.09753
            151  C 12 XY     -0.00172     0.07225
            152  C 12 XZ      0.06823     0.01454
            153  C 12 YZ      0.00000     0.11534
            154  C 13  S      1.51706     0.31358
            155  C 13  S     -0.23463     0.10896
            156  C 13  X      0.79213     0.46911
            157  C 13  Y      1.10958     0.68430
            158  C 13  Z      1.24734     0.79451
            159  C 13  X     -0.07528     0.13498
            160  C 13  Y      0.02995     0.14913
            161  C 13  Z     -0.24914     0.18120
            162  C 13 XX      0.03111     0.04285
            163  C 13 YY      0.02015     0.17758
            164  C 13 ZZ      0.03685     0.15358
            165  C 13 XY      0.00514     0.06377
            166  C 13 XZ      0.03133     0.00802
            167  C 13 YZ      0.00000     0.06557
            168  C 13  S     -0.06883     0.03649
            169  C 13  X      0.00956     0.01596
            170  C 13  Y      0.06581     0.03082
            171  C 13  Z      0.02187     0.01898
            172  C 13 XX      0.00899     0.00060
            173  C 13 YY      0.01848     0.12209
            174  C 13 ZZ      0.04312     0.09183
            175  C 13 XY     -0.00521     0.13619
            176  C 13 XZ      0.04941     0.01508
            177  C 13 YZ      0.00000     0.11602
            178  C 14  S      1.51706     0.31358
            179  C 14  S     -0.23463     0.10896
            180  C 14  X      0.79213     0.46911
            181  C 14  Y      1.10958     0.68430
            182  C 14  Z      1.24734     0.79451
            183  C 14  X     -0.07528     0.13498
            184  C 14  Y      0.02995     0.14913
            185  C 14  Z     -0.24914     0.18120
            186  C 14 XX      0.03111     0.04285
            187  C 14 YY      0.02015     0.17758
            188  C 14 ZZ      0.03685     0.15358
            189  C 14 XY      0.00514     0.06377
            190  C 14 XZ      0.03133     0.00802
            191  C 14 YZ      0.00000     0.06557
            192  C 14  S     -0.06883     0.03649
            193  C 14  X      0.00956     0.01596
            194  C 14  Y      0.06581     0.03082
            195  C 14  Z      0.02187     0.01898
            196  C 14 XX      0.00899     0.00060
            197  C 14 YY      0.01848     0.12209
            198  C 14 ZZ      0.04312     0.09183
            199  C 14 XY     -0.00521     0.13619
            200  C 14 XZ      0.04941     0.01508
            201  C 14 YZ      0.00000     0.11602
            202  N 15  S      1.63226     0.42342
            203  N 15  S     -0.58927     0.15245
            204  N 15  X      1.51794     1.04369
            205  N 15  Y      1.29398     0.88708
            206  N 15  Z      1.33228     0.92023
            207  N 15  X      0.07882     0.29736
            208  N 15  Y     -0.21865     0.27372
            209  N 15  Z     -0.15408     0.29754
            210  N 15 XX      0.00986     0.08093
            211  N 15 YY      0.00611     0.15725
            212  N 15 ZZ      0.00399     0.14593
            213  N 15 XY      0.00057     0.00546
            214  N 15 XZ      0.01267     0.00083
            215  N 15 YZ      0.00000     0.02774
            216  N 15  S     -0.17078     0.04207
            217  N 15  X     -0.00337     0.02326
            218  N 15  Y     -0.02413     0.03517
            219  N 15  Z     -0.04462     0.02400
            220  N 15 XX     -0.00482     0.00013
            221  N 15 YY     -0.00141     0.07201
            222  N 15 ZZ      0.01110     0.05662
            223  N 15 XY      0.00099     0.04002
            224  N 15 XZ     -0.00344     0.00532
            225  N 15 YZ      0.00000     0.10109
            226  N 16  S      1.63226     0.42342
            227  N 16  S     -0.58927     0.15245
            228  N 16  X      1.51794     1.04369
            229  N 16  Y      1.29398     0.88708
            230  N 16  Z      1.33228     0.92023
            231  N 16  X      0.07882     0.29736
            232  N 16  Y     -0.21865     0.27372
            233  N 16  Z     -0.15408     0.29754
            234  N 16 XX      0.00986     0.08093
            235  N 16 YY      0.00611     0.15725
            236  N 16 ZZ      0.00399     0.14593
            237  N 16 XY      0.00057     0.00546
            238  N 16 XZ      0.01267     0.00083
            239  N 16 YZ      0.00000     0.02774
            240  N 16  S     -0.17078     0.04207
            241  N 16  X     -0.00337     0.02326
            242  N 16  Y     -0.02413     0.03517
            243  N 16  Z     -0.04462     0.02400
            244  N 16 XX     -0.00482     0.00013
            245  N 16 YY     -0.00141     0.07201
            246  N 16 ZZ      0.01110     0.05662
            247  N 16 XY      0.00099     0.04002
            248  N 16 XZ     -0.00344     0.00532
            249  N 16 YZ      0.00000     0.10109

          ----- MULLIKEN ATOMIC OVERLAP POPULATIONS -----
          (OFF-DIAGONAL ELEMENTS NEED TO BE MULTIPLIED BY 2)

             1           2           3           4           5

    1    0.9670140
    2   -0.0156229   0.8616005
    3   -0.0156229  -0.0173948   0.8616003
    4   -0.0130530  -0.0042082   0.0013641   0.9158701
    5   -0.0130530   0.0013641  -0.0042083  -0.0003530   0.9158704
    6   -0.0008826  -0.0074689   0.0008024   0.0095696   0.0000675
    7   -0.0008826   0.0008024  -0.0074689   0.0000675   0.0095697
    8    0.0018267  -0.0029064  -0.0000449   0.0017718  -0.0000429
    9    0.0018267  -0.0000449  -0.0029064  -0.0000429   0.0017717
   10   -0.1638164   0.1176873   0.1176878  -0.1008982  -0.1008981
   11    0.1154805   0.0490405  -0.0909497   0.2693185  -0.0012844
   12    0.1154804  -0.0909494   0.0490407  -0.0012843   0.2693179
   13    0.0083638   0.0971331   0.0214523   0.0220851  -0.0052569
   14    0.0083638   0.0214523   0.0971328  -0.0052569   0.0220857
   15    0.0008233  -0.0008051   0.0000465  -0.0128949   0.0003511
   16    0.0008233   0.0000465  -0.0008051   0.0003511  -0.0128950

             6           7           8           9          10

    6    0.5805491
    7   -0.0000029   0.5805492
    8   -0.0273312   0.0000037   0.5828323
    9    0.0000037  -0.0273313  -0.0000017   0.5828325
   10   -0.0030497  -0.0030498  -0.0010004  -0.0010003   8.0300285
   11    0.0238454   0.0047458  -0.0045475  -0.0004770  -1.9892862
   12    0.0047458   0.0238455  -0.0004770  -0.0045478  -1.9892862
   13   -0.0279697  -0.0005137   0.0015572  -0.0001220  -0.0057816
   14   -0.0005137  -0.0279696  -0.0001220   0.0015574  -0.0057792
   15    0.3592820   0.0000108   0.3999466   0.0000153   0.0335664
   16    0.0000108   0.3592819   0.0000153   0.3999466   0.0335660

            11          12          13          14          15

   11    7.0899120
   12   -0.7764032   7.0899112
   13   -1.6262636   0.3699271   5.2063175
   14    0.3699269  -1.6262639  -0.0044247   5.2063163
   15    0.0167236   0.0212973   0.3486922  -0.0004138   3.5192398
   16    0.0212974   0.0167240  -0.0004138   0.3486920   0.0001083

            16

   16    3.5192399

          TOTAL MULLIKEN AND LOWDIN ATOMIC POPULATIONS
       ATOM         MULL.POP.    CHARGE          LOW.POP.     CHARGE
    1 H             0.997069    0.002931         0.886877    0.113123
    2 H             1.009726   -0.009726         0.894680    0.105320
    3 H             1.009726   -0.009726         0.894680    0.105320
    4 H             1.082406   -0.082406         0.869639    0.130361
    5 H             1.082406   -0.082406         0.869639    0.130361
    6 H             0.911658    0.088342         0.828511    0.171489
    7 H             0.911658    0.088342         0.828511    0.171489
    8 H             0.951480    0.048520         0.824485    0.175515
    9 H             0.951480    0.048520         0.824485    0.175515
   10 C             3.968690    0.031310         4.042916   -0.042916
   11 C             3.471079    0.528921         4.073289   -0.073289
   12 C             3.471078    0.528922         4.073289   -0.073289
   13 C             4.404782   -0.404782         3.931185    0.068815
   14 C             4.404783   -0.404783         3.931185    0.068815
   15 N             4.685989    0.314011         5.113315   -0.113315
   16 N             4.685989    0.314011         5.113315   -0.113315

          MULLIKEN SPHERICAL HARMONIC POPULATIONS
       ATOM           S       P       D      F      G      H      I    TOTAL
    1 H             1.03   -0.04    0.00   0.00   0.00   0.00   0.00    1.00
    2 H             1.01    0.00    0.00   0.00   0.00   0.00   0.00    1.01
    3 H             1.01    0.00    0.00   0.00   0.00   0.00   0.00    1.01
    4 H             1.08    0.00    0.00   0.00   0.00   0.00   0.00    1.08
    5 H             1.08    0.00    0.00   0.00   0.00   0.00   0.00    1.08
    6 H             0.85    0.06    0.00   0.00   0.00   0.00   0.00    0.91
    7 H             0.85    0.06    0.00   0.00   0.00   0.00   0.00    0.91
    8 H             0.87    0.08    0.00   0.00   0.00   0.00   0.00    0.95
    9 H             0.87    0.08    0.00   0.00   0.00   0.00   0.00    0.95
   10 C             0.61    3.08    0.27   0.00   0.00   0.00   0.00    3.97
   11 C            -0.01    3.28    0.21   0.00   0.00   0.00   0.00    3.47
   12 C            -0.01    3.28    0.21   0.00   0.00   0.00   0.00    3.47
   13 C             1.21    2.95    0.24   0.00   0.00   0.00   0.00    4.40
   14 C             1.21    2.95    0.24   0.00   0.00   0.00   0.00    4.40
   15 N             0.87    3.78    0.04   0.00   0.00   0.00   0.00    4.69
   16 N             0.87    3.78    0.04   0.00   0.00   0.00   0.00    4.69

          ---------------------
          ELECTROSTATIC MOMENTS
          ---------------------

 POINT   1           X           Y           Z (BOHR)    CHARGE
                 0.000000    0.000000   -0.002041        1.00 (A.U.)
         DX          DY          DZ         /D/  (DEBYE)
     0.000000    0.000000    0.414610    0.414610
 ...... END OF PROPERTY EVALUATION ......
 STEP CPU TIME =     0.09 TOTAL CPU TIME =      188.7 (    3.1 MIN)
 TOTAL WALL CLOCK TIME=      190.0 SECONDS, CPU UTILIZATION IS  99.31%
                650694  WORDS OF DYNAMIC MEMORY USED
 EXECUTION OF GAMESS TERMINATED NORMALLY Tue Sep 26 17:13:26 2017
 DDI: 1128 bytes (0.0 MB / 0 MWords) used by master data server.

 ----------------------------------------
 CPU timing information for all processes
 ========================================
 0: 177.783110 + 10.916682 = 188.699792
 ----------------------------------------
 ddikick.x: exited gracefully.
----- accounting info -----
Tue Sep 26 17:13:29 CEST 2017
Files used on the master node lpqlx139 were:
-rw-r--r-- 1 scemama scemama    1049075 Sep 26 17:13 /dev/shm//gamess/C5.dat
-rw-r--r-- 1 scemama scemama     970393 Sep 26 17:10 /dev/shm//gamess/C5.F05
-rw-r--r-- 1 scemama scemama 2756404992 Sep 26 17:11 /dev/shm//gamess/C5.F08
-rw-r--r-- 1 scemama scemama     429024 Sep 26 17:13 /dev/shm//gamess/C5.F09
-rw-r--r-- 1 scemama scemama   29055360 Sep 26 17:13 /dev/shm//gamess/C5.F10
-rw-r--r-- 1 scemama scemama     268000 Sep 26 17:11 /dev/shm//gamess/C5.F11
-rw-r--r-- 1 scemama scemama        248 Sep 26 17:13 /dev/shm//gamess/C5.F12
-rw-r--r-- 1 scemama scemama     550072 Sep 26 17:13 /dev/shm//gamess/C5.F13
-rw-r--r-- 1 scemama scemama    4800008 Sep 26 17:13 /dev/shm//gamess/C5.F14
-rw-r--r-- 1 scemama scemama     181704 Sep 26 17:13 /dev/shm//gamess/C5.F15
-rw-r--r-- 1 scemama scemama     181704 Sep 26 17:13 /dev/shm//gamess/C5.F16
-rw-r--r-- 1 scemama scemama     936792 Sep 26 17:13 /dev/shm//gamess/C5.F23
0.076u 0.192s 3:12.54 0.1%	0+0k 16+0io 1pf+0w
