----- GAMESS execution script -----
This job is running on host lpqlx139
under operating system Linux at Tue Sep 26 17:28:47 CEST 2017
Available scratch disk space (Kbyte units) at beginning of the job is
Filesystem     1K-blocks      Used Available Use% Mounted on
/dev/sdb1      480720592 262714896 193586420  58% /backup

 Distributed Data Interface kickoff program.
 Initiating 1 compute processes on 1 nodes to run the following command:
 /usr/local/gamess/gamess.01.x C7 

          ******************************************************
          *         GAMESS VERSION = 22 FEB 2006 (R5)          *
          *             FROM IOWA STATE UNIVERSITY             *
          * M.W.SCHMIDT, K.K.BALDRIDGE, J.A.BOATZ, S.T.ELBERT, *
          *   M.S.GORDON, J.H.JENSEN, S.KOSEKI, N.MATSUNAGA,   *
          *          K.A.NGUYEN, S.J.SU, T.L.WINDUS,           *
          *       TOGETHER WITH M.DUPUIS, J.A.MONTGOMERY       *
          *         J.COMPUT.CHEM.  14, 1347-1363(1993)        *
          ***************** AMD 64 BIT VERSION *****************

     SINCE 1993, STUDENTS AND POSTDOCS WORKING AT IOWA STATE UNIVERSITY
     AND ALSO IN THEIR VARIOUS JOBS AFTER LEAVING ISU HAVE MADE IMPORTANT
     CONTRIBUTIONS TO THE CODE:
     IVANA ADAMOVIC, CHRISTINE AIKENS, YURI ALEXEEV, POOJA ARORA, ROB BELL,
     PRADIPTA BANDYOPADHYAY, BRETT BODE, GALINA CHABAN, WEI CHEN,
     CHEOL HO CHOI, PAUL DAY, TIM DUDLEY, DMITRI FEDOROV, GRAHAM FLETCHER,
     MARK FREITAG, KURT GLAESEMANN, GRANT MERRILL, TAKESHI NAGATA,
     HEATHER NETZLOFF, BOSILJKA NJEGIC, RYAN OLSON, MIKE PAK, JIM SHOEMAKER,
     LYUDMILA SLIPCHENKO, JIE SONG, TETSUYA TAKETSUGU, SIMON WEBB.

     ADDITIONAL CODE HAS BEEN PROVIDED BY COLLABORATORS IN OTHER GROUPS:
     IOWA STATE UNIVERSITY: JOE IVANIC, KLAUS RUEDENBERG
     UNIVERSITY OF TOKYO: KIMIHIKO HIRAO, HARUYUKI NAKANO, TAKAHITO
          NAKAJIMA, TAKAO TSUNEDA, MUNEAKI KAMIYA, SUSUMU YANAGISAWA,
          KIYOSHI YAGI
     UNIVERSITY OF SOUTHERN DENMARK: FRANK JENSEN
     UNIVERSITY OF IOWA: VISVALDAS KAIRYS, HUI LI
     NATIONAL INST. OF STANDARDS AND TECHNOLOGY: WALT STEVENS, DAVID GARMER
     UNIVERSITY OF PISA: BENEDETTA MENNUCCI, JACOPO TOMASI
     UNIVERSITY OF MEMPHIS: HENRY KURTZ, PRAKASHAN KORAMBATH
     UNIVERSITY OF ALBERTA: MARIUSZ KLOBUKOWSKI
     UNIVERSITY OF NEW ENGLAND: MARK SPACKMAN
     MIE UNIVERSITY: HIROAKI UMEDA
     MICHIGAN STATE UNIVERSITY:
          KAROL KOWALSKI, MARTA WLOCH, PIOTR PIECUCH
     UNIVERSITY OF SILESIA: MONIKA MUSIAL, STANISLAW KUCHARSKI
     FACULTES UNIVERSITAIRES NOTRE-DAME DE LA PAIX:
          OLIVIER QUINET, BENOIT CHAMPAGNE
     UNIVERSITY OF CALIFORNIA - SANTA BARBARA: BERNARD KIRTMAN
     INSTITUTE FOR MOLECULAR SCIENCE: KAZUYA ISHIMURA AND SHIGERU NAGASE
     UNIVERSITY OF NOTRE DAME: DAN CHIPMAN
     KYUSHU UNIVERSITY:
          FENG LONG GU, JACEK KORCHOWIEC, MARCIN MAKOWSKI, AND YURIKO AOKI
     PENNSYLVANIA STATE UNIVERSITY:
          TZVETELIN IORDANOV, CHET SWALINA, SHARON HAMMES-SCHIFFER

 EXECUTION OF GAMESS BEGUN Tue Sep 26 17:28:48 2017

            ECHO OF THE FIRST FEW INPUT CARDS -
 INPUT CARD> $CONTRL                                                                        
 INPUT CARD>   EXETYP=RUN COORD=UNIQUE  UNITS=ANGS                                          
 INPUT CARD>   RUNTYP=ENERGY SCFTYP=MCSCF CITYP=NONE                                        
 INPUT CARD>   MAXIT=100                                                                    
 INPUT CARD>   ISPHER=1                                                                     
 INPUT CARD>   MULT=1                                                                       
 INPUT CARD>   ICHARG=1                                                                     
 INPUT CARD>   MPLEVL=0                                                                     
 INPUT CARD>   ECP=READ                                                                     
 INPUT CARD> $END                                                                           
 INPUT CARD>                                                                                
 INPUT CARD> $GUESS                                                                         
 INPUT CARD>  GUESS=MOREAD                                                                  
 INPUT CARD>  NORB=297                                                                      
 INPUT CARD> $END                                                                           
 INPUT CARD>                                                                                
 INPUT CARD> $SCF                                                                           
 INPUT CARD>  DIRSCF=.T.                                                                    
 INPUT CARD> $END                                                                           
 INPUT CARD>                                                                                
 INPUT CARD> $MCSCF                                                                         
 INPUT CARD>   FOCAS=.F.    SOSCF=.T.   FULLNR=.F.                                          
 INPUT CARD>   CISTEP=GUGA EKT=.F. QUAD=.F. JACOBI=.f.                                      
 INPUT CARD>   MAXIT=1000                                                                   
 INPUT CARD> $END                                                                           
 INPUT CARD>                                                                                
 INPUT CARD> $GUGDIA                                                                        
 INPUT CARD>  NSTATE=2                                                                      
 INPUT CARD> $END                                                                           
 INPUT CARD>                                                                                
 INPUT CARD> $GUGDM2                                                                        
 INPUT CARD>  WSTATE(1)=0.5,0.5                                                             
 INPUT CARD> $END                                                                           
 INPUT CARD>                                                                                
 INPUT CARD>                                                                                
 INPUT CARD> $DRT                                                                           
 INPUT CARD>  NMCC=23                                                                       
 INPUT CARD>  NDOC=1                                                                        
 INPUT CARD>  NALP=0                                                                        
 INPUT CARD>  NVAL=1                                                                        
 INPUT CARD>  NEXT=0                                                                        
 INPUT CARD>  ISTSYM=1                                                                      
 INPUT CARD>  FORS=.TRUE.                                                                   
 INPUT CARD>  GROUP=C1                                                                      
 INPUT CARD>  MXNINT= 600000                                                                
 INPUT CARD>  NPRT=2                                                                        
 INPUT CARD> $END                                                                           
 INPUT CARD>                                                                                
 INPUT CARD> $GUGDM                                                                         
 INPUT CARD>  NFLGDM(1)=1,1                                                                 

 ..... DONE SETTING UP THE RUN .....
    1000000 WORDS OF MEMORY AVAILABLE

     $BASIS REQUESTS READING THE "BASIS   " BASIS SET FROM AN EXTERNAL FILE


     RUN TITLE
     ---------
 C7                                                                              

 THE POINT GROUP OF THE MOLECULE IS C1      
 THE ORDER OF THE PRINCIPAL AXIS IS     0

 THE EXTERNAL BASIS SET FILE BEING READ IS
     "/home/scemama/Cyanines/Runs/AVDZ_Pseudo/BASIS"
 *** WARNING! ATOM   1 SHELL    1 TYPE S HAS NORMALIZATION   1.32259418
 *** WARNING! ATOM   1 SHELL    3 TYPE P HAS NORMALIZATION  22.65171974
 *** WARNING! ATOM   2 SHELL    6 TYPE S HAS NORMALIZATION   1.32259418
 *** WARNING! ATOM   2 SHELL    8 TYPE P HAS NORMALIZATION  22.65171974
 *** WARNING! ATOM   3 SHELL   11 TYPE S HAS NORMALIZATION   1.32259418
 *** WARNING! ATOM   3 SHELL   13 TYPE P HAS NORMALIZATION  22.65171974
 *** WARNING! ATOM   4 SHELL   16 TYPE S HAS NORMALIZATION   1.32259418
 *** WARNING! ATOM   4 SHELL   18 TYPE P HAS NORMALIZATION  22.65171974
 *** WARNING! ATOM   5 SHELL   21 TYPE S HAS NORMALIZATION   1.32259418
 *** WARNING! ATOM   5 SHELL   23 TYPE P HAS NORMALIZATION  22.65171974
 *** WARNING! ATOM   6 SHELL   26 TYPE S HAS NORMALIZATION   1.32259418
 *** WARNING! ATOM   6 SHELL   28 TYPE P HAS NORMALIZATION  22.65171974
 *** WARNING! ATOM   7 SHELL   31 TYPE S HAS NORMALIZATION   1.32259418
 *** WARNING! ATOM   7 SHELL   33 TYPE P HAS NORMALIZATION  22.65171974
 *** WARNING! ATOM   8 SHELL   36 TYPE S HAS NORMALIZATION   1.32259418
 *** WARNING! ATOM   8 SHELL   38 TYPE P HAS NORMALIZATION  22.65171974
 *** WARNING! ATOM   9 SHELL   41 TYPE S HAS NORMALIZATION   1.32259418
 *** WARNING! ATOM   9 SHELL   43 TYPE P HAS NORMALIZATION  22.65171974
 *** WARNING! ATOM  10 SHELL   46 TYPE S HAS NORMALIZATION   1.32259418
 *** WARNING! ATOM  10 SHELL   48 TYPE P HAS NORMALIZATION  22.65171974
 *** WARNING! ATOM  11 SHELL   51 TYPE S HAS NORMALIZATION   1.32259418
 *** WARNING! ATOM  11 SHELL   53 TYPE P HAS NORMALIZATION  22.65171974

 ATOM      ATOMIC                      COORDINATES (BOHR)
           CHARGE         X                   Y                   Z
 H           1.0     0.0000000000        0.0000000000        2.9032975288
 H           1.0     0.0000000000        2.2113290049       -2.4794130925
 H           1.0     0.0000000000       -2.2113290049       -2.4794130925
 H           1.0     0.0000000000        4.8201996659        2.7398116644
 H           1.0     0.0000000000       -4.8201996659        2.7398116644
 H           1.0     0.0000000000        6.6290019177       -2.8100527794
 H           1.0     0.0000000000       -6.6290019177       -2.8100527794
 H           1.0     0.0000000000        9.5302868883        1.9562292247
 H           1.0     0.0000000000       -9.5302868883        1.9562292247
 H           1.0     0.0000000000       10.6358805260       -1.0929400325
 H           1.0     0.0000000000      -10.6358805260       -1.0929400325
 C           6.0     0.0000000000        0.0000000000        0.8529051478
 C           6.0     0.0000000000        2.2827700959       -0.4241773438
 C           6.0     0.0000000000       -2.2827700959       -0.4241773438
 C           6.0     0.0000000000        4.6586923447        0.6961089135
 C           6.0     0.0000000000       -4.6586923447        0.6961089135
 C           6.0     0.0000000000        6.8083123475       -0.7671002496
 C           6.0     0.0000000000       -6.8083123475       -0.7671002496
 N           7.0     0.0000000000        9.1544071612        0.0924321672
 N           7.0     0.0000000000       -9.1544071612        0.0924321672

          INTERNUCLEAR DISTANCES (ANGS.)
          ------------------------------

                    H              H              H              H         

  1  H               0.0000000      3.0794092      3.0794092      2.5522067 *  
  2  H               3.0794092      0.0000000      2.3403700 *    3.0877170    
  3  H               3.0794092      2.3403700 *    0.0000000      4.6339343    
  4  H               2.5522067 *    3.0877170      4.6339343      0.0000000    
  5  H               2.5522067 *    4.6339343      3.0877170      5.1014800    
  6  H               4.6310126      2.3442705 *    4.6813729      3.0889070    
  7  H               4.6310126      4.6813729      2.3442705 *    6.7329401    
  8  H               5.0680515      4.5287825      6.6419749      2.5267271 *  
  9  H               5.0680515      6.6419749      4.5287825      7.6052633    
 10  H               6.0124380      4.5180513      6.8379264      3.6857539    
 11  H               6.0124380      6.8379264      4.5180513      8.4267286    
 12  C               1.0850210 *    2.1163333 *    2.1163333 *    2.7392139 *  
 13  C               2.1353550 *    1.0882409 *    2.6150632 *    2.1462281 *  
 14  C               2.1353550 *    2.6150632 *    1.0882409 *    4.1147744    
 15  C               2.7279637 *    2.1215670 *    4.0050410      1.0848528 *  
 16  C               2.7279637 *    4.0050410      2.1215670 *    5.1312764    
 17  C               4.0930051      2.5958974 *    4.8582375      2.1332488 *  
 18  C               4.0930051      4.8582375      2.5958974 *    6.4272868    
 19  N               5.0675218      3.9180822      6.1665465      2.6875731 *  
 20  N               5.0675218      6.1665465      3.9180822      7.5265722    

                    H              H              H              H         

  1  H               2.5522067 *    4.6310126      4.6310126      5.0680515    
  2  H               4.6339343      2.3442705 *    4.6813729      4.5287825    
  3  H               3.0877170      4.6813729      2.3442705 *    6.6419749    
  4  H               5.1014800      3.0889070      6.7329401      2.5267271 *  
  5  H               0.0000000      6.7329401      3.0889070      7.6052633    
  6  H               6.7329401      0.0000000      7.0158340      2.9527379 *  
  7  H               3.0889070      7.0158340      0.0000000      8.9153420    
  8  H               7.6052633      2.9527379 *    8.9153420      0.0000000    
  9  H               2.5267271 *    8.9153420      2.9527379 *   10.0864220    
 10  H               8.4267286      2.3068458 *    9.1812579      1.7163438 *  
 11  H               3.6857539      9.1812579      2.3068458 *   10.7927739    
 12  C               2.7392139 *    4.0078296      4.0078296      5.0768950    
 13  C               4.1147744      2.6236805 *    4.8819887      4.0367878    
 14  C               2.1462281 *    4.8819887      2.6236805 *    6.3768526    
 15  C               5.1312764      2.1282723 *    6.2547142      2.6627838 *  
 16  C               1.0848528 *    6.2547142      2.1282723 *    7.5380372    
 17  C               6.4272868      1.0852401 *    7.1924332      2.0375502 *  
 18  C               2.1332488 *    7.1924332      1.0852401 *    8.7652960    
 19  N               7.5265722      2.0359293 *    8.4922714      1.0061363 *  
 20  N               2.6875731 *    8.4922714      2.0359293 *    9.9365839    

                    H              H              H              C         

  1  H               5.0680515      6.0124380      6.0124380      1.0850210 *  
  2  H               6.6419749      4.5180513      6.8379264      2.1163333 *  
  3  H               4.5287825      6.8379264      4.5180513      2.1163333 *  
  4  H               7.6052633      3.6857539      8.4267286      2.7392139 *  
  5  H               2.5267271 *    8.4267286      3.6857539      2.7392139 *  
  6  H               8.9153420      2.3068458 *    9.1812579      4.0078296    
  7  H               2.9527379 *    9.1812579      2.3068458 *    4.0078296    
  8  H              10.0864220      1.7163438 *   10.7927739      5.0768950    
  9  H               0.0000000     10.7927739      1.7163438 *    5.0768950    
 10  H              10.7927739      0.0000000     11.2565320      5.7216828    
 11  H               1.7163438 *   11.2565320      0.0000000      5.7216828    
 12  C               5.0768950      5.7216828      5.7216828      0.0000000    
 13  C               6.3768526      4.4344200      6.8454099      1.3841783 *  
 14  C               4.0367878      6.8454099      4.4344200      1.3841783 *  
 15  C               7.5380372      3.3016367      8.1487224      2.4666699 *  
 16  C               2.6627838 *    8.1487224      3.3016367      2.4666699 *  
 17  C               8.7652960      2.0327881 *    9.2326802      3.7033915    
 18  C               2.0375502 *    9.2326802      2.0327881 *    3.7033915    
 19  N               9.9365839      1.0040252 *   10.4913389      4.8609903    
 20  N               1.0061363 *   10.4913389      1.0040252 *    4.8609903    

                    C              C              C              C         

  1  H               2.1353550 *    2.1353550 *    2.7279637 *    2.7279637 *  
  2  H               1.0882409 *    2.6150632 *    2.1215670 *    4.0050410    
  3  H               2.6150632 *    1.0882409 *    4.0050410      2.1215670 *  
  4  H               2.1462281 *    4.1147744      1.0848528 *    5.1312764    
  5  H               4.1147744      2.1462281 *    5.1312764      1.0848528 *  
  6  H               2.6236805 *    4.8819887      2.1282723 *    6.2547142    
  7  H               4.8819887      2.6236805 *    6.2547142      2.1282723 *  
  8  H               4.0367878      6.3768526      2.6627838 *    7.5380372    
  9  H               6.3768526      4.0367878      7.5380372      2.6627838 *  
 10  H               4.4344200      6.8454099      3.3016367      8.1487224    
 11  H               6.8454099      4.4344200      8.1487224      3.3016367    
 12  C               1.3841783 *    1.3841783 *    2.4666699 *    2.4666699 *  
 13  C               0.0000000      2.4159800 *    1.3900397 *    3.7207951    
 14  C               2.4159800 *    0.0000000      3.7207951      1.3900397 *  
 15  C               1.3900397 *    3.7207951      0.0000000      4.9305480    
 16  C               3.7207951      1.3900397 *    4.9305480      0.0000000    
 17  C               2.4016795 *    4.8142153      1.3760488 *    6.1172793    
 18  C               4.8142153      2.4016795 *    6.1172793      1.3760488 *  
 19  N               3.6465758      6.0584650      2.4003819 *    7.3165552    
 20  N               6.0584650      3.6465758      7.3165552      2.4003819 *  

                    C              C              N              N         

  1  H               4.0930051      4.0930051      5.0675218      5.0675218    
  2  H               2.5958974 *    4.8582375      3.9180822      6.1665465    
  3  H               4.8582375      2.5958974 *    6.1665465      3.9180822    
  4  H               2.1332488 *    6.4272868      2.6875731 *    7.5265722    
  5  H               6.4272868      2.1332488 *    7.5265722      2.6875731 *  
  6  H               1.0852401 *    7.1924332      2.0359293 *    8.4922714    
  7  H               7.1924332      1.0852401 *    8.4922714      2.0359293 *  
  8  H               2.0375502 *    8.7652960      1.0061363 *    9.9365839    
  9  H               8.7652960      2.0375502 *    9.9365839      1.0061363 *  
 10  H               2.0327881 *    9.2326802      1.0040252 *   10.4913389    
 11  H               9.2326802      2.0327881 *   10.4913389      1.0040252 *  
 12  C               3.7033915      3.7033915      4.8609903      4.8609903    
 13  C               2.4016795 *    4.8142153      3.6465758      6.0584650    
 14  C               4.8142153      2.4016795 *    6.0584650      3.6465758    
 15  C               1.3760488 *    6.1172793      2.4003819 *    7.3165552    
 16  C               6.1172793      1.3760488 *    7.3165552      2.4003819 *  
 17  C               0.0000000      7.2056080      1.3221975 *    8.4593450    
 18  C               7.2056080      0.0000000      8.4593450      1.3221975 *  
 19  N               1.3221975 *    8.4593450      0.0000000      9.6886080    
 20  N               8.4593450      1.3221975 *    9.6886080      0.0000000    

  * ... LESS THAN  3.000


     ATOMIC BASIS SET
     ----------------
 THE CONTRACTED PRIMITIVE FUNCTIONS HAVE BEEN UNNORMALIZED
 THE CONTRACTED BASIS FUNCTIONS ARE NOW NORMALIZED TO UNITY

  SHELL TYPE  PRIMITIVE        EXPONENT          CONTRACTION COEFFICIENT(S)

 H         

      1   S       1             0.0130000    0.000933751491
      1   S       2             0.0299000   -0.002802577067
      1   S       3             0.0687700    0.076304426024
      1   S       4             0.1581700    0.305115864344
      1   S       5             0.3637920    0.367168015485
      1   S       6             0.8367210    0.224620137364
      1   S       7             1.9244580    0.128877544677
      1   S       8             4.4262540    0.039632857196
      1   S       9            10.1803850   -0.000597812569

      2   S      10             0.1704830    1.000000000000

      3   P      11             0.0030000    0.028133435917
      3   P      12             0.0078000   -0.020681020122
      3   P      13             0.0202810   -0.001223192866
      3   P      14             0.0527300   -0.005391109298
      3   P      15             0.1370970   -0.261174328600
      3   P      16             0.3564510   -0.413054109456
      3   P      17             0.9267740   -0.315515804256
      3   P      18             2.4096120   -0.212812906956
      3   P      19             6.2649910   -0.007860146750

      4   S      20             0.0297400    1.000000000000

      5   P      21             0.1410000    1.000000000000

 H         

      6   S      22             0.0130000    0.000933751491
      6   S      23             0.0299000   -0.002802577067
      6   S      24             0.0687700    0.076304426024
      6   S      25             0.1581700    0.305115864344
      6   S      26             0.3637920    0.367168015485
      6   S      27             0.8367210    0.224620137364
      6   S      28             1.9244580    0.128877544677
      6   S      29             4.4262540    0.039632857196
      6   S      30            10.1803850   -0.000597812569

      7   S      31             0.1704830    1.000000000000

      8   P      32             0.0030000    0.028133435917
      8   P      33             0.0078000   -0.020681020122
      8   P      34             0.0202810   -0.001223192866
      8   P      35             0.0527300   -0.005391109298
      8   P      36             0.1370970   -0.261174328600
      8   P      37             0.3564510   -0.413054109456
      8   P      38             0.9267740   -0.315515804256
      8   P      39             2.4096120   -0.212812906956
      8   P      40             6.2649910   -0.007860146750

      9   S      41             0.0297400    1.000000000000

     10   P      42             0.1410000    1.000000000000

 H         

     11   S      43             0.0130000    0.000933751491
     11   S      44             0.0299000   -0.002802577067
     11   S      45             0.0687700    0.076304426024
     11   S      46             0.1581700    0.305115864344
     11   S      47             0.3637920    0.367168015485
     11   S      48             0.8367210    0.224620137364
     11   S      49             1.9244580    0.128877544677
     11   S      50             4.4262540    0.039632857196
     11   S      51            10.1803850   -0.000597812569

     12   S      52             0.1704830    1.000000000000

     13   P      53             0.0030000    0.028133435917
     13   P      54             0.0078000   -0.020681020122
     13   P      55             0.0202810   -0.001223192866
     13   P      56             0.0527300   -0.005391109298
     13   P      57             0.1370970   -0.261174328600
     13   P      58             0.3564510   -0.413054109456
     13   P      59             0.9267740   -0.315515804256
     13   P      60             2.4096120   -0.212812906956
     13   P      61             6.2649910   -0.007860146750

     14   S      62             0.0297400    1.000000000000

     15   P      63             0.1410000    1.000000000000

 H         

     16   S      64             0.0130000    0.000933751491
     16   S      65             0.0299000   -0.002802577067
     16   S      66             0.0687700    0.076304426024
     16   S      67             0.1581700    0.305115864344
     16   S      68             0.3637920    0.367168015485
     16   S      69             0.8367210    0.224620137364
     16   S      70             1.9244580    0.128877544677
     16   S      71             4.4262540    0.039632857196
     16   S      72            10.1803850   -0.000597812569

     17   S      73             0.1704830    1.000000000000

     18   P      74             0.0030000    0.028133435917
     18   P      75             0.0078000   -0.020681020122
     18   P      76             0.0202810   -0.001223192866
     18   P      77             0.0527300   -0.005391109298
     18   P      78             0.1370970   -0.261174328600
     18   P      79             0.3564510   -0.413054109456
     18   P      80             0.9267740   -0.315515804256
     18   P      81             2.4096120   -0.212812906956
     18   P      82             6.2649910   -0.007860146750

     19   S      83             0.0297400    1.000000000000

     20   P      84             0.1410000    1.000000000000

 H         

     21   S      85             0.0130000    0.000933751491
     21   S      86             0.0299000   -0.002802577067
     21   S      87             0.0687700    0.076304426024
     21   S      88             0.1581700    0.305115864344
     21   S      89             0.3637920    0.367168015485
     21   S      90             0.8367210    0.224620137364
     21   S      91             1.9244580    0.128877544677
     21   S      92             4.4262540    0.039632857196
     21   S      93            10.1803850   -0.000597812569

     22   S      94             0.1704830    1.000000000000

     23   P      95             0.0030000    0.028133435917
     23   P      96             0.0078000   -0.020681020122
     23   P      97             0.0202810   -0.001223192866
     23   P      98             0.0527300   -0.005391109298
     23   P      99             0.1370970   -0.261174328600
     23   P     100             0.3564510   -0.413054109456
     23   P     101             0.9267740   -0.315515804256
     23   P     102             2.4096120   -0.212812906956
     23   P     103             6.2649910   -0.007860146750

     24   S     104             0.0297400    1.000000000000

     25   P     105             0.1410000    1.000000000000

 H         

     26   S     106             0.0130000    0.000933751491
     26   S     107             0.0299000   -0.002802577067
     26   S     108             0.0687700    0.076304426024
     26   S     109             0.1581700    0.305115864344
     26   S     110             0.3637920    0.367168015485
     26   S     111             0.8367210    0.224620137364
     26   S     112             1.9244580    0.128877544677
     26   S     113             4.4262540    0.039632857196
     26   S     114            10.1803850   -0.000597812569

     27   S     115             0.1704830    1.000000000000

     28   P     116             0.0030000    0.028133435917
     28   P     117             0.0078000   -0.020681020122
     28   P     118             0.0202810   -0.001223192866
     28   P     119             0.0527300   -0.005391109298
     28   P     120             0.1370970   -0.261174328600
     28   P     121             0.3564510   -0.413054109456
     28   P     122             0.9267740   -0.315515804256
     28   P     123             2.4096120   -0.212812906956
     28   P     124             6.2649910   -0.007860146750

     29   S     125             0.0297400    1.000000000000

     30   P     126             0.1410000    1.000000000000

 H         

     31   S     127             0.0130000    0.000933751491
     31   S     128             0.0299000   -0.002802577067
     31   S     129             0.0687700    0.076304426024
     31   S     130             0.1581700    0.305115864344
     31   S     131             0.3637920    0.367168015485
     31   S     132             0.8367210    0.224620137364
     31   S     133             1.9244580    0.128877544677
     31   S     134             4.4262540    0.039632857196
     31   S     135            10.1803850   -0.000597812569

     32   S     136             0.1704830    1.000000000000

     33   P     137             0.0030000    0.028133435917
     33   P     138             0.0078000   -0.020681020122
     33   P     139             0.0202810   -0.001223192866
     33   P     140             0.0527300   -0.005391109298
     33   P     141             0.1370970   -0.261174328600
     33   P     142             0.3564510   -0.413054109456
     33   P     143             0.9267740   -0.315515804256
     33   P     144             2.4096120   -0.212812906956
     33   P     145             6.2649910   -0.007860146750

     34   S     146             0.0297400    1.000000000000

     35   P     147             0.1410000    1.000000000000

 H         

     36   S     148             0.0130000    0.000933751491
     36   S     149             0.0299000   -0.002802577067
     36   S     150             0.0687700    0.076304426024
     36   S     151             0.1581700    0.305115864344
     36   S     152             0.3637920    0.367168015485
     36   S     153             0.8367210    0.224620137364
     36   S     154             1.9244580    0.128877544677
     36   S     155             4.4262540    0.039632857196
     36   S     156            10.1803850   -0.000597812569

     37   S     157             0.1704830    1.000000000000

     38   P     158             0.0030000    0.028133435917
     38   P     159             0.0078000   -0.020681020122
     38   P     160             0.0202810   -0.001223192866
     38   P     161             0.0527300   -0.005391109298
     38   P     162             0.1370970   -0.261174328600
     38   P     163             0.3564510   -0.413054109456
     38   P     164             0.9267740   -0.315515804256
     38   P     165             2.4096120   -0.212812906956
     38   P     166             6.2649910   -0.007860146750

     39   S     167             0.0297400    1.000000000000

     40   P     168             0.1410000    1.000000000000

 H         

     41   S     169             0.0130000    0.000933751491
     41   S     170             0.0299000   -0.002802577067
     41   S     171             0.0687700    0.076304426024
     41   S     172             0.1581700    0.305115864344
     41   S     173             0.3637920    0.367168015485
     41   S     174             0.8367210    0.224620137364
     41   S     175             1.9244580    0.128877544677
     41   S     176             4.4262540    0.039632857196
     41   S     177            10.1803850   -0.000597812569

     42   S     178             0.1704830    1.000000000000

     43   P     179             0.0030000    0.028133435917
     43   P     180             0.0078000   -0.020681020122
     43   P     181             0.0202810   -0.001223192866
     43   P     182             0.0527300   -0.005391109298
     43   P     183             0.1370970   -0.261174328600
     43   P     184             0.3564510   -0.413054109456
     43   P     185             0.9267740   -0.315515804256
     43   P     186             2.4096120   -0.212812906956
     43   P     187             6.2649910   -0.007860146750

     44   S     188             0.0297400    1.000000000000

     45   P     189             0.1410000    1.000000000000

 H         

     46   S     190             0.0130000    0.000933751491
     46   S     191             0.0299000   -0.002802577067
     46   S     192             0.0687700    0.076304426024
     46   S     193             0.1581700    0.305115864344
     46   S     194             0.3637920    0.367168015485
     46   S     195             0.8367210    0.224620137364
     46   S     196             1.9244580    0.128877544677
     46   S     197             4.4262540    0.039632857196
     46   S     198            10.1803850   -0.000597812569

     47   S     199             0.1704830    1.000000000000

     48   P     200             0.0030000    0.028133435917
     48   P     201             0.0078000   -0.020681020122
     48   P     202             0.0202810   -0.001223192866
     48   P     203             0.0527300   -0.005391109298
     48   P     204             0.1370970   -0.261174328600
     48   P     205             0.3564510   -0.413054109456
     48   P     206             0.9267740   -0.315515804256
     48   P     207             2.4096120   -0.212812906956
     48   P     208             6.2649910   -0.007860146750

     49   S     209             0.0297400    1.000000000000

     50   P     210             0.1410000    1.000000000000

 H         

     51   S     211             0.0130000    0.000933751491
     51   S     212             0.0299000   -0.002802577067
     51   S     213             0.0687700    0.076304426024
     51   S     214             0.1581700    0.305115864344
     51   S     215             0.3637920    0.367168015485
     51   S     216             0.8367210    0.224620137364
     51   S     217             1.9244580    0.128877544677
     51   S     218             4.4262540    0.039632857196
     51   S     219            10.1803850   -0.000597812569

     52   S     220             0.1704830    1.000000000000

     53   P     221             0.0030000    0.028133435917
     53   P     222             0.0078000   -0.020681020122
     53   P     223             0.0202810   -0.001223192866
     53   P     224             0.0527300   -0.005391109298
     53   P     225             0.1370970   -0.261174328600
     53   P     226             0.3564510   -0.413054109456
     53   P     227             0.9267740   -0.315515804256
     53   P     228             2.4096120   -0.212812906956
     53   P     229             6.2649910   -0.007860146750

     54   S     230             0.0297400    1.000000000000

     55   P     231             0.1410000    1.000000000000

 C         

     56   S     232             0.0513440    0.013990987871
     56   S     233             0.1026190    0.169851852753
     56   S     234             0.2051000    0.397528655377
     56   S     235             0.4099240    0.380368670253
     56   S     236             0.8192970    0.180112843858
     56   S     237             1.6374940   -0.033511970948
     56   S     238             3.2727910   -0.121498894671
     56   S     239             6.5411870    0.015175986844
     56   S     240            13.0735940   -0.000704999389

     57   S     241             0.1278520    1.000000000000

     58   P     242             0.0292810    0.001787000047
     58   P     243             0.0585470    0.050426001336
     58   P     244             0.1170630    0.191634005079
     58   P     245             0.2340640    0.302667008021
     58   P     246             0.4680030    0.289868007682
     58   P     247             0.9357570    0.210979005591
     58   P     248             1.8710160    0.112024002969
     58   P     249             3.7410350    0.054425001442
     58   P     250             7.4800760    0.021931000581

     59   P     251             0.1491610    1.000000000000

     60   D     252             0.5611600    1.000000000000

     61   S     253             0.0469000    1.000000000000

     62   P     254             0.0404100    1.000000000000

     63   D     255             0.1510000    1.000000000000

 C         

     64   S     256             0.0513440    0.013990987871
     64   S     257             0.1026190    0.169851852753
     64   S     258             0.2051000    0.397528655377
     64   S     259             0.4099240    0.380368670253
     64   S     260             0.8192970    0.180112843858
     64   S     261             1.6374940   -0.033511970948
     64   S     262             3.2727910   -0.121498894671
     64   S     263             6.5411870    0.015175986844
     64   S     264            13.0735940   -0.000704999389

     65   S     265             0.1278520    1.000000000000

     66   P     266             0.0292810    0.001787000047
     66   P     267             0.0585470    0.050426001336
     66   P     268             0.1170630    0.191634005079
     66   P     269             0.2340640    0.302667008021
     66   P     270             0.4680030    0.289868007682
     66   P     271             0.9357570    0.210979005591
     66   P     272             1.8710160    0.112024002969
     66   P     273             3.7410350    0.054425001442
     66   P     274             7.4800760    0.021931000581

     67   P     275             0.1491610    1.000000000000

     68   D     276             0.5611600    1.000000000000

     69   S     277             0.0469000    1.000000000000

     70   P     278             0.0404100    1.000000000000

     71   D     279             0.1510000    1.000000000000

 C         

     72   S     280             0.0513440    0.013990987871
     72   S     281             0.1026190    0.169851852753
     72   S     282             0.2051000    0.397528655377
     72   S     283             0.4099240    0.380368670253
     72   S     284             0.8192970    0.180112843858
     72   S     285             1.6374940   -0.033511970948
     72   S     286             3.2727910   -0.121498894671
     72   S     287             6.5411870    0.015175986844
     72   S     288            13.0735940   -0.000704999389

     73   S     289             0.1278520    1.000000000000

     74   P     290             0.0292810    0.001787000047
     74   P     291             0.0585470    0.050426001336
     74   P     292             0.1170630    0.191634005079
     74   P     293             0.2340640    0.302667008021
     74   P     294             0.4680030    0.289868007682
     74   P     295             0.9357570    0.210979005591
     74   P     296             1.8710160    0.112024002969
     74   P     297             3.7410350    0.054425001442
     74   P     298             7.4800760    0.021931000581

     75   P     299             0.1491610    1.000000000000

     76   D     300             0.5611600    1.000000000000

     77   S     301             0.0469000    1.000000000000

     78   P     302             0.0404100    1.000000000000

     79   D     303             0.1510000    1.000000000000

 C         

     80   S     304             0.0513440    0.013990987871
     80   S     305             0.1026190    0.169851852753
     80   S     306             0.2051000    0.397528655377
     80   S     307             0.4099240    0.380368670253
     80   S     308             0.8192970    0.180112843858
     80   S     309             1.6374940   -0.033511970948
     80   S     310             3.2727910   -0.121498894671
     80   S     311             6.5411870    0.015175986844
     80   S     312            13.0735940   -0.000704999389

     81   S     313             0.1278520    1.000000000000

     82   P     314             0.0292810    0.001787000047
     82   P     315             0.0585470    0.050426001336
     82   P     316             0.1170630    0.191634005079
     82   P     317             0.2340640    0.302667008021
     82   P     318             0.4680030    0.289868007682
     82   P     319             0.9357570    0.210979005591
     82   P     320             1.8710160    0.112024002969
     82   P     321             3.7410350    0.054425001442
     82   P     322             7.4800760    0.021931000581

     83   P     323             0.1491610    1.000000000000

     84   D     324             0.5611600    1.000000000000

     85   S     325             0.0469000    1.000000000000

     86   P     326             0.0404100    1.000000000000

     87   D     327             0.1510000    1.000000000000

 C         

     88   S     328             0.0513440    0.013990987871
     88   S     329             0.1026190    0.169851852753
     88   S     330             0.2051000    0.397528655377
     88   S     331             0.4099240    0.380368670253
     88   S     332             0.8192970    0.180112843858
     88   S     333             1.6374940   -0.033511970948
     88   S     334             3.2727910   -0.121498894671
     88   S     335             6.5411870    0.015175986844
     88   S     336            13.0735940   -0.000704999389

     89   S     337             0.1278520    1.000000000000

     90   P     338             0.0292810    0.001787000047
     90   P     339             0.0585470    0.050426001336
     90   P     340             0.1170630    0.191634005079
     90   P     341             0.2340640    0.302667008021
     90   P     342             0.4680030    0.289868007682
     90   P     343             0.9357570    0.210979005591
     90   P     344             1.8710160    0.112024002969
     90   P     345             3.7410350    0.054425001442
     90   P     346             7.4800760    0.021931000581

     91   P     347             0.1491610    1.000000000000

     92   D     348             0.5611600    1.000000000000

     93   S     349             0.0469000    1.000000000000

     94   P     350             0.0404100    1.000000000000

     95   D     351             0.1510000    1.000000000000

 C         

     96   S     352             0.0513440    0.013990987871
     96   S     353             0.1026190    0.169851852753
     96   S     354             0.2051000    0.397528655377
     96   S     355             0.4099240    0.380368670253
     96   S     356             0.8192970    0.180112843858
     96   S     357             1.6374940   -0.033511970948
     96   S     358             3.2727910   -0.121498894671
     96   S     359             6.5411870    0.015175986844
     96   S     360            13.0735940   -0.000704999389

     97   S     361             0.1278520    1.000000000000

     98   P     362             0.0292810    0.001787000047
     98   P     363             0.0585470    0.050426001336
     98   P     364             0.1170630    0.191634005079
     98   P     365             0.2340640    0.302667008021
     98   P     366             0.4680030    0.289868007682
     98   P     367             0.9357570    0.210979005591
     98   P     368             1.8710160    0.112024002969
     98   P     369             3.7410350    0.054425001442
     98   P     370             7.4800760    0.021931000581

     99   P     371             0.1491610    1.000000000000

    100   D     372             0.5611600    1.000000000000

    101   S     373             0.0469000    1.000000000000

    102   P     374             0.0404100    1.000000000000

    103   D     375             0.1510000    1.000000000000

 C         

    104   S     376             0.0513440    0.013990987871
    104   S     377             0.1026190    0.169851852753
    104   S     378             0.2051000    0.397528655377
    104   S     379             0.4099240    0.380368670253
    104   S     380             0.8192970    0.180112843858
    104   S     381             1.6374940   -0.033511970948
    104   S     382             3.2727910   -0.121498894671
    104   S     383             6.5411870    0.015175986844
    104   S     384            13.0735940   -0.000704999389

    105   S     385             0.1278520    1.000000000000

    106   P     386             0.0292810    0.001787000047
    106   P     387             0.0585470    0.050426001336
    106   P     388             0.1170630    0.191634005079
    106   P     389             0.2340640    0.302667008021
    106   P     390             0.4680030    0.289868007682
    106   P     391             0.9357570    0.210979005591
    106   P     392             1.8710160    0.112024002969
    106   P     393             3.7410350    0.054425001442
    106   P     394             7.4800760    0.021931000581

    107   P     395             0.1491610    1.000000000000

    108   D     396             0.5611600    1.000000000000

    109   S     397             0.0469000    1.000000000000

    110   P     398             0.0404100    1.000000000000

    111   D     399             0.1510000    1.000000000000

 N         

    112   S     400             0.0988690    0.067266010234
    112   S     401             0.2114430    0.334290050859
    112   S     402             0.4521970    0.454257069111
    112   S     403             0.9670800    0.267861040752
    112   S     404             2.0682210    0.000248000038
    112   S     405             4.4231500   -0.132606020175
    112   S     406             9.4594620    0.014437002196
    112   S     407            20.2302460    0.000359000055
    112   S     408            43.2649190   -0.000094000014

    113   S     409             0.1751230    1.000000000000

    114   P     410             0.0732340    0.035757988749
    114   P     411             0.1458670    0.153944951562
    114   P     412             0.2905350    0.277655912638
    114   P     413             0.5786830    0.297675906338
    114   P     414             1.1526120    0.234402926247
    114   P     415             2.2957560    0.140320955849
    114   P     416             4.5726520    0.067218978850
    114   P     417             9.1077390    0.031593990059
    114   P     418            18.1406570    0.003300998961

    115   P     419             0.2230420    1.000000000000

    116   D     420             0.8320580    1.000000000000

    117   S     421             0.0612400    1.000000000000

    118   P     422             0.0561100    1.000000000000

    119   D     423             0.2300000    1.000000000000

 N         

    120   S     424             0.0988690    0.067266010234
    120   S     425             0.2114430    0.334290050859
    120   S     426             0.4521970    0.454257069111
    120   S     427             0.9670800    0.267861040752
    120   S     428             2.0682210    0.000248000038
    120   S     429             4.4231500   -0.132606020175
    120   S     430             9.4594620    0.014437002196
    120   S     431            20.2302460    0.000359000055
    120   S     432            43.2649190   -0.000094000014

    121   S     433             0.1751230    1.000000000000

    122   P     434             0.0732340    0.035757988749
    122   P     435             0.1458670    0.153944951562
    122   P     436             0.2905350    0.277655912638
    122   P     437             0.5786830    0.297675906338
    122   P     438             1.1526120    0.234402926247
    122   P     439             2.2957560    0.140320955849
    122   P     440             4.5726520    0.067218978850
    122   P     441             9.1077390    0.031593990059
    122   P     442            18.1406570    0.003300998961

    123   P     443             0.2230420    1.000000000000

    124   D     444             0.8320580    1.000000000000

    125   S     445             0.0612400    1.000000000000

    126   P     446             0.0561100    1.000000000000

    127   D     447             0.2300000    1.000000000000

 TOTAL NUMBER OF BASIS SET SHELLS             =  127
 NUMBER OF CARTESIAN GAUSSIAN BASIS FUNCTIONS =  315
 NOTE: THIS RUN WILL RESTRICT THE MO VARIATION SPACE TO SPHERICAL HARMONICS.
 THE NUMBER OF ORBITALS KEPT IN THE VARIATIONAL SPACE WILL BE PRINTED LATER.
 NUMBER OF ELECTRONS                          =   66
 CHARGE OF MOLECULE                           =    1
 SPIN MULTIPLICITY                            =    1
 NUMBER OF OCCUPIED ORBITALS (ALPHA)          =   33
 NUMBER OF OCCUPIED ORBITALS (BETA )          =   33
 TOTAL NUMBER OF ATOMS                        =   20
 THE NUCLEAR REPULSION ENERGY IS      378.1181902989
 NOTE THIS RUN IS USING CORE POTENTIALS, AND THE NUMBER OF ELECTRONS,
 OCCUPIED ORBITALS, AND NUCLEAR REPULSION ENERGY WILL BE ADJUSTED BELOW
 AFTER REMOVAL OF THE CORE CHARGES.

     $CONTRL OPTIONS
     ---------------
 SCFTYP=MCSCF        RUNTYP=ENERGY       EXETYP=RUN     
 MPLEVL=       0     CITYP =NONE         CCTYP =NONE         VBTYP =NONE    
 MULT  =       1     ICHARG=       1     NZVAR =       0     COORD =UNIQUE  
 PP    =READ         RELWFN=NONE         LOCAL =NONE         NUMGRD=       F
 ISPHER=       1     NOSYM =       0     MAXIT =     100     UNITS =ANGS    
 PLTORB=       F     MOLPLT=       F     AIMPAC=       F     FRIEND=        
 NPRINT=       7     IREST =       0     GEOM  =INPUT   
 NORMF =       0     NORMP =       0     ITOL  =      20     ICUT  =       9
 INTTYP=BEST         GRDTYP=BEST         QMTTOL= 1.0E-06

     $SYSTEM OPTIONS
     ---------------
  REPLICATED MEMORY=     1000000 WORDS (ON EVERY NODE).
 DISTRIBUTED MEMDDI=           0 MILLION WORDS IN AGGREGATE,
 MEMDDI DISTRIBUTED OVER   1 PROCESSORS IS           0 WORDS/PROCESSOR.
 TOTAL MEMORY REQUESTED ON EACH PROCESSOR=     1000000 WORDS.
 TIMLIM=      525600.00 MINUTES, OR   365.00 DAYS.
 PARALL= F  BALTYP=  NXTVAL  KDIAG=    0  COREFL= F

          --------------
          ECP POTENTIALS
          --------------

 PARAMETERS FOR "H       " ON ATOM    1 WITH ZCORE   0 AND LMAX  0 ARE
 FOR L= 0      COEFF    N           ZETA
    1        1.00000    1        4.47692
    2        4.47692    3        2.97636
    3       -4.32112    2        3.01842

 PARAMETERS FOR "H       " ON ATOM    2 ARE THE SAME AS ATOM   1

 PARAMETERS FOR "H       " ON ATOM    3 ARE THE SAME AS ATOM   1

 PARAMETERS FOR "H       " ON ATOM    4 ARE THE SAME AS ATOM   1

 PARAMETERS FOR "H       " ON ATOM    5 ARE THE SAME AS ATOM   1

 PARAMETERS FOR "H       " ON ATOM    6 ARE THE SAME AS ATOM   1

 PARAMETERS FOR "H       " ON ATOM    7 ARE THE SAME AS ATOM   1

 PARAMETERS FOR "H       " ON ATOM    8 ARE THE SAME AS ATOM   1

 PARAMETERS FOR "H       " ON ATOM    9 ARE THE SAME AS ATOM   1

 PARAMETERS FOR "H       " ON ATOM   10 ARE THE SAME AS ATOM   1

 PARAMETERS FOR "H       " ON ATOM   11 ARE THE SAME AS ATOM   1

 PARAMETERS FOR "C       " ON ATOM   12 WITH ZCORE   2 AND LMAX  1 ARE
 FOR L= 1      COEFF    N           ZETA
    1        4.00000    1        8.35974
    2       33.43895    3        4.48362
    3      -19.17537    2        3.93831
 FOR L= 0      COEFF    N           ZETA
    1       22.55164    2        5.02992

 PARAMETERS FOR "C       " ON ATOM   13 ARE THE SAME AS ATOM  12

 PARAMETERS FOR "C       " ON ATOM   14 ARE THE SAME AS ATOM  12

 PARAMETERS FOR "C       " ON ATOM   15 ARE THE SAME AS ATOM  12

 PARAMETERS FOR "C       " ON ATOM   16 ARE THE SAME AS ATOM  12

 PARAMETERS FOR "C       " ON ATOM   17 ARE THE SAME AS ATOM  12

 PARAMETERS FOR "C       " ON ATOM   18 ARE THE SAME AS ATOM  12

 PARAMETERS FOR "N       " ON ATOM   19 WITH ZCORE   2 AND LMAX  1 ARE
 FOR L= 1      COEFF    N           ZETA
    1        5.00000    1        9.23501
    2       46.17505    3        7.66830
    3      -30.18894    2        7.34486
 FOR L= 0      COEFF    N           ZETA
    1       31.69720    2        6.99537

 PARAMETERS FOR "N       " ON ATOM   20 ARE THE SAME AS ATOM  19

 THE ECP RUN REMOVES   18 CORE ELECTRONS, AND THE SAME NUMBER OF PROTONS.
 NUMBER OF ELECTRONS KEPT IN THE CALCULATION IS =   48
 NUMBER OF OCCUPIED ORBITALS (ALPHA) KEPT IS    =   24
 NUMBER OF OCCUPIED ORBITALS (BETA ) KEPT IS    =   24
 THE ADJUSTED NUCLEAR REPULSION ENERGY=      201.6502952895
          ECP ANGULAR INTS.........     0.00 SECONDS

          ----------------
          PROPERTIES INPUT
          ----------------

     MOMENTS            FIELD           POTENTIAL          DENSITY
 IEMOM =       1   IEFLD =       0   IEPOT =       0   IEDEN =       0
 WHERE =COMASS     WHERE =NUCLEI     WHERE =NUCLEI     WHERE =NUCLEI  
 OUTPUT=BOTH       OUTPUT=BOTH       OUTPUT=BOTH       OUTPUT=BOTH    
 IEMINT=       0   IEFINT=       0                     IEDINT=       0
                                                       MORB  =       0

     -------------------------------
     INTEGRAL TRANSFORMATION OPTIONS
     -------------------------------
     NWORD  =       0     CUTOFF = 1.0E-09
     MPTRAN =       0     DIRTRF =       F
     AOINTS =DUP     

          ----------------------
          MCSCF INPUT PARAMETERS
          ----------------------
 CONVERGER SELECTION: FOCAS = F  SOSCF = T  FULLNR = F  QUD = F  JACOBI = F
 SECULAR EQUATION METHOD CISTEP = GUGA    
 --- GENERAL INPUT OPTIONS:
 MAXIT =    1000  MICIT =       5  ACURCY= 1.000E-05
 DAMP  =   0.000  CANONC=       T  ENGTOL= 1.000E-10
 EKT   =       F  NPUNCH=       2  NWORD =         0
 --- INPUT FOR SOSCF CONVERGER:
 FORS  =       T  NOFO  =       1

          ----------------------
          INTEGRAL INPUT OPTIONS
          ----------------------
 NOPK  =       1 NORDER=       0 SCHWRZ=       T

     ------------------------------------------
     THE POINT GROUP IS C1 , NAXIS= 0, ORDER= 1
     ------------------------------------------

 -- VARIATIONAL SPACE WILL BE RESTRICTED TO PURE SPHERICAL HARMONICS ONLY --
 AFTER EXCLUDING CONTAMINANT COMBINATIONS FROM THE CARTESIAN GAUSSIAN BASIS
 SET, THE NUMBER OF SPHERICAL HARMONICS KEPT IN THE VARIATION SPACE IS  297

     DIMENSIONS OF THE SYMMETRY SUBSPACES ARE
 A   =  297

 ..... DONE SETTING UP THE RUN .....
 STEP CPU TIME =     0.11 TOTAL CPU TIME =        0.1 (    0.0 MIN)
 TOTAL WALL CLOCK TIME=        0.0 SECONDS, CPU UTILIZATION IS 100.00%

          ********************
          1 ELECTRON INTEGRALS
          ********************
 TIME TO DO ORDINARY INTEGRALS=      0.18
 TIME TO DO      ECP INTEGRALS=      1.62
 TIME TO DO   DIPOLE INTEGRALS=      0.03
 ...... END OF ONE-ELECTRON INTEGRALS ......
 STEP CPU TIME =     1.83 TOTAL CPU TIME =        1.9 (    0.0 MIN)
 TOTAL WALL CLOCK TIME=        2.0 SECONDS, CPU UTILIZATION IS  97.00%

          -------------
          GUESS OPTIONS
          -------------
          GUESS =MOREAD            NORB  =     297          NORDER=       0
          MIX   =       F          PRTMO =       F          PUNMO =       F
          TOLZ  = 1.0E-08          TOLE  = 1.0E-05
          SYMDEN=       F          PURIFY=       F

 INITIAL GUESS ORBITALS GENERATED BY MOREAD   ROUTINE.

 STATISTICS FOR GENERATION OF SYMMETRY ORBITAL -Q- MATRIX
 NUMBER OF CARTESIAN ATOMIC ORBITALS=        315
 NUMBER OF SPHERICAL CONTAMINANTS DROPPED=    18
 NUMBER OF LINEARLY DEPENDENT MOS DROPPED=     0
 TOTAL NUMBER OF MOS IN VARIATION SPACE=     297

                    * * * * * WARNING * * * * *
 POSSIBLE LINEAR DEPENDENCE PROBLEMS DETECTED, INPUT QMTTOL= 1.0E-06,
 WITH     6 OVERLAP EIGENVALUES LYING BETWEEN 1.0E-05 AND QMTTOL.
 IF YOU EXPERIENCE SCF CONVERGENCE DIFFICULTIES WITH THE DENSITY ALMOST BUT
 NOT QUITE CONVERGED, YOU MAY NEED TO LOOSEN -QMTTOL- BY A FACTOR 5 TO 10.

 SYMMETRIES FOR INITIAL GUESS ORBITALS FOLLOW.   BOTH SET(S).
    25 ORBITALS ARE OCCUPIED (    0 CORE ORBITALS).
     1=A        2=A        3=A        4=A        5=A        6=A        7=A   
     8=A        9=A       10=A       11=A       12=A       13=A       14=A   
    15=A       16=A       17=A       18=A       19=A       20=A       21=A   
    22=A       23=A       24=A       25=A       26=A       27=A       28=A   
    29=A       30=A       31=A       32=A       33=A       34=A       35=A   
    36=A       37=A       38=A       39=A       40=A       41=A       42=A   
    43=A       44=A       45=A       46=A       47=A       48=A       49=A   
    50=A       51=A       52=A       53=A       54=A       55=A       56=A   
    57=A       58=A       59=A       60=A       61=A       62=A       63=A   
    64=A       65=A       66=A       67=A       68=A       69=A       70=A   
    71=A       72=A       73=A       74=A       75=A       76=A       77=A   
    78=A       79=A       80=A       81=A       82=A       83=A       84=A   
    85=A       86=A       87=A       88=A       89=A       90=A       91=A   
    92=A       93=A       94=A       95=A       96=A       97=A       98=A   
    99=A      100=A      101=A      102=A      103=A      104=A      105=A   
   106=A      107=A      108=A      109=A      110=A      111=A      112=A   
   113=A      114=A      115=A      116=A      117=A      118=A      119=A   
   120=A      121=A      122=A      123=A      124=A      125=A      126=A   
   127=A      128=A      129=A      130=A      131=A      132=A      133=A   
   134=A      135=A      136=A      137=A      138=A      139=A      140=A   
   141=A      142=A      143=A      144=A      145=A      146=A      147=A   
   148=A      149=A      150=A      151=A      152=A      153=A      154=A   
   155=A      156=A      157=A      158=A      159=A      160=A      161=A   
   162=A      163=A      164=A      165=A      166=A      167=A      168=A   
   169=A      170=A      171=A      172=A      173=A      174=A      175=A   
   176=A      177=A      178=A      179=A      180=A      181=A      182=A   
   183=A      184=A      185=A      186=A      187=A      188=A      189=A   
   190=A      191=A      192=A      193=A      194=A      195=A      196=A   
   197=A      198=A      199=A      200=A      201=A      202=A      203=A   
   204=A      205=A      206=A      207=A      208=A      209=A      210=A   
   211=A      212=A      213=A      214=A      215=A      216=A      217=A   
   218=A      219=A      220=A      221=A      222=A      223=A      224=A   
   225=A      226=A      227=A      228=A      229=A      230=A      231=A   
   232=A      233=A      234=A      235=A      236=A      237=A      238=A   
   239=A      240=A      241=A      242=A      243=A      244=A      245=A   
   246=A      247=A      248=A      249=A      250=A      251=A      252=A   
   253=A      254=A      255=A      256=A      257=A      258=A      259=A   
   260=A      261=A      262=A      263=A      264=A      265=A      266=A   
   267=A      268=A      269=A      270=A      271=A      272=A      273=A   
   274=A      275=A      276=A      277=A      278=A      279=A      280=A   
   281=A      282=A      283=A      284=A      285=A      286=A      287=A   
   288=A      289=A      290=A      291=A      292=A      293=A      294=A   
   295=A      296=A      297=A   
 ...... END OF INITIAL ORBITAL SELECTION ......
 STEP CPU TIME =     0.15 TOTAL CPU TIME =        2.1 (    0.0 MIN)
 TOTAL WALL CLOCK TIME=        2.0 SECONDS, CPU UTILIZATION IS 104.50%

                    ----------------------
                    AO INTEGRAL TECHNOLOGY
                    ----------------------
     S,P,L SHELL ROTATED AXIS INTEGRALS, REPROGRAMMED BY
        KAZUYA ISHIMURA (IMS) AND JOSE SIERRA (SYNSTAR).
     S,P,D,L SHELL ROTATED AXIS INTEGRALS PROGRAMMED BY
        KAZUYA ISHIMURA (INSTITUTE FOR MOLECULAR SCIENCE).
     S,P,D,F,G SHELL TO TOTAL QUARTET ANGULAR MOMENTUM SUM 5,
        ERIC PROGRAM BY GRAHAM FLETCHER (ELORET AND NASA ADVANCED
        SUPERCOMPUTING DIVISION, AMES RESEARCH CENTER).
     S,P,D,F,G,L SHELL GENERAL RYS QUADRATURE PROGRAMMED BY
        MICHEL DUPUIS (PACIFIC NORTHWEST NATIONAL LABORATORY).

          --------------------
          2 ELECTRON INTEGRALS
          --------------------

 THE -PK- OPTION IS OFF, THE INTEGRALS ARE NOT IN SUPERMATRIX FORM.
 STORING   15000 INTEGRALS/RECORD ON DISK, USING 16 BYTES/INTEGRAL.
 TWO ELECTRON INTEGRAL EVALUATION REQUIRES   98524 WORDS OF MEMORY.
 SCHWARZ INEQUALITY OVERHEAD:     49046 INTEGRALS, T=        0.23
 II,JST,KST,LST =  1  1  1  1 NREC =         1 INTLOC =    1
 II,JST,KST,LST =  2  1  1  1 NREC =         1 INTLOC =    2
 II,JST,KST,LST =  3  1  1  1 NREC =         1 INTLOC =    7
 II,JST,KST,LST =  4  1  1  1 NREC =         1 INTLOC =   34
 II,JST,KST,LST =  5  1  1  1 NREC =         1 INTLOC =   67
 II,JST,KST,LST =  6  1  1  1 NREC =         1 INTLOC =  214
 II,JST,KST,LST =  7  1  1  1 NREC =         1 INTLOC =  529
 II,JST,KST,LST =  8  1  1  1 NREC =         1 INTLOC =  960
 II,JST,KST,LST =  9  1  1  1 NREC =         1 INTLOC = 2759
 II,JST,KST,LST = 10  1  1  1 NREC =         1 INTLOC = 3764
 II,JST,KST,LST = 11  1  1  1 NREC =         1 INTLOC = 7491
 II,JST,KST,LST = 12  1  1  1 NREC =         1 INTLOC = 9438
 II,JST,KST,LST = 13  1  1  1 NREC =         1 INTLOC =11734
 II,JST,KST,LST = 14  1  1  1 NREC =         2 INTLOC = 4519
 II,JST,KST,LST = 15  1  1  1 NREC =         2 INTLOC = 8267
 II,JST,KST,LST = 16  1  1  1 NREC =         3 INTLOC = 5470
 II,JST,KST,LST = 17  1  1  1 NREC =         3 INTLOC =12044
 II,JST,KST,LST = 18  1  1  1 NREC =         4 INTLOC = 4435
 II,JST,KST,LST = 19  1  1  1 NREC =         5 INTLOC =13429
 II,JST,KST,LST = 20  1  1  1 NREC =         6 INTLOC = 9169
 II,JST,KST,LST = 21  1  1  1 NREC =         8 INTLOC =13306
 II,JST,KST,LST = 22  1  1  1 NREC =         9 INTLOC =13255
 II,JST,KST,LST = 23  1  1  1 NREC =        10 INTLOC =14572
 II,JST,KST,LST = 24  1  1  1 NREC =        14 INTLOC = 5077
 II,JST,KST,LST = 25  1  1  1 NREC =        15 INTLOC =11743
 II,JST,KST,LST = 26  1  1  1 NREC =        20 INTLOC = 2947
 II,JST,KST,LST = 27  1  1  1 NREC =        22 INTLOC = 1791
 II,JST,KST,LST = 28  1  1  1 NREC =        24 INTLOC = 2565
 II,JST,KST,LST = 29  1  1  1 NREC =        30 INTLOC = 6540
 II,JST,KST,LST = 30  1  1  1 NREC =        33 INTLOC =  941
 II,JST,KST,LST = 31  1  1  1 NREC =        40 INTLOC =13976
 II,JST,KST,LST = 32  1  1  1 NREC =        44 INTLOC = 2550
 II,JST,KST,LST = 33  1  1  1 NREC =        47 INTLOC = 7515
 II,JST,KST,LST = 34  1  1  1 NREC =        57 INTLOC =10299
 II,JST,KST,LST = 35  1  1  1 NREC =        61 INTLOC =13890
 II,JST,KST,LST = 36  1  1  1 NREC =        74 INTLOC = 1427
 II,JST,KST,LST = 37  1  1  1 NREC =        79 INTLOC =  558
 II,JST,KST,LST = 38  1  1  1 NREC =        83 INTLOC =10761
 II,JST,KST,LST = 39  1  1  1 NREC =        99 INTLOC =   65
 II,JST,KST,LST = 40  1  1  1 NREC =       105 INTLOC = 6481
 II,JST,KST,LST = 41  1  1  1 NREC =       122 INTLOC = 1553
 II,JST,KST,LST = 42  1  1  1 NREC =       129 INTLOC = 1257
 II,JST,KST,LST = 43  1  1  1 NREC =       135 INTLOC = 6327
 II,JST,KST,LST = 44  1  1  1 NREC =       156 INTLOC =13509
 II,JST,KST,LST = 45  1  1  1 NREC =       165 INTLOC =14287
 II,JST,KST,LST = 46  1  1  1 NREC =       187 INTLOC =11291
 II,JST,KST,LST = 47  1  1  1 NREC =       197 INTLOC = 6435
 II,JST,KST,LST = 48  1  1  1 NREC =       206 INTLOC = 3295
 II,JST,KST,LST = 49  1  1  1 NREC =       236 INTLOC =  389
 II,JST,KST,LST = 50  1  1  1 NREC =       248 INTLOC = 6348
 II,JST,KST,LST = 51  1  1  1 NREC =       277 INTLOC =13005
 II,JST,KST,LST = 52  1  1  1 NREC =       290 INTLOC = 6519
 II,JST,KST,LST = 53  1  1  1 NREC =       301 INTLOC = 8940
 II,JST,KST,LST = 54  1  1  1 NREC =       340 INTLOC =10505
 II,JST,KST,LST = 55  1  1  1 NREC =       356 INTLOC =12369
 II,JST,KST,LST = 56  1  1  1 NREC =       393 INTLOC = 4551
 II,JST,KST,LST = 57  1  1  1 NREC =       411 INTLOC =13166
 II,JST,KST,LST = 58  1  1  1 NREC =       431 INTLOC = 3030
 II,JST,KST,LST = 59  1  1  1 NREC =       485 INTLOC =13473
 II,JST,KST,LST = 60  1  1  1 NREC =       545 INTLOC = 7698
 II,JST,KST,LST = 61  1  1  1 NREC =       672 INTLOC = 5656
 II,JST,KST,LST = 62  1  1  1 NREC =       700 INTLOC = 2412
 II,JST,KST,LST = 63  1  1  1 NREC =       779 INTLOC = 6061
 II,JST,KST,LST = 64  1  1  1 NREC =       954 INTLOC = 1240
 II,JST,KST,LST = 65  1  1  1 NREC =       989 INTLOC = 2390
 II,JST,KST,LST = 66  1  1  1 NREC =      1025 INTLOC = 3863
 II,JST,KST,LST = 67  1  1  1 NREC =      1128 INTLOC = 4758
 II,JST,KST,LST = 68  1  1  1 NREC =      1238 INTLOC = 4626
 II,JST,KST,LST = 69  1  1  1 NREC =      1468 INTLOC = 3138
 II,JST,KST,LST = 70  1  1  1 NREC =      1517 INTLOC = 1378
 II,JST,KST,LST = 71  1  1  1 NREC =      1657 INTLOC =  792
 II,JST,KST,LST = 72  1  1  1 NREC =      1958 INTLOC =13388
 II,JST,KST,LST = 73  1  1  1 NREC =      2018 INTLOC = 1860
 II,JST,KST,LST = 74  1  1  1 NREC =      2078 INTLOC =12015
 II,JST,KST,LST = 75  1  1  1 NREC =      2252 INTLOC = 1246
 II,JST,KST,LST = 76  1  1  1 NREC =      2435 INTLOC = 2882
 II,JST,KST,LST = 77  1  1  1 NREC =      2814 INTLOC =14934
 II,JST,KST,LST = 78  1  1  1 NREC =      2893 INTLOC = 1361
 II,JST,KST,LST = 79  1  1  1 NREC =      3116 INTLOC = 8679
 II,JST,KST,LST = 80  1  1  1 NREC =      3593 INTLOC = 9140
 II,JST,KST,LST = 81  1  1  1 NREC =      3685 INTLOC = 2711
 II,JST,KST,LST = 82  1  1  1 NREC =      3778 INTLOC =  658
 II,JST,KST,LST = 83  1  1  1 NREC =      4046 INTLOC = 2405
 II,JST,KST,LST = 84  1  1  1 NREC =      4323 INTLOC =13676
 II,JST,KST,LST = 85  1  1  1 NREC =      4889 INTLOC = 2031
 II,JST,KST,LST = 86  1  1  1 NREC =      5006 INTLOC =10993
 II,JST,KST,LST = 87  1  1  1 NREC =      5344 INTLOC = 1221
 II,JST,KST,LST = 88  1  1  1 NREC =      6046 INTLOC = 4081
 II,JST,KST,LST = 89  1  1  1 NREC =      6180 INTLOC = 6543
 II,JST,KST,LST = 90  1  1  1 NREC =      6316 INTLOC = 4381
 II,JST,KST,LST = 91  1  1  1 NREC =      6707 INTLOC =11479
 II,JST,KST,LST = 92  1  1  1 NREC =      7110 INTLOC =10259
 II,JST,KST,LST = 93  1  1  1 NREC =      7898 INTLOC =  512
 II,JST,KST,LST = 94  1  1  1 NREC =      8065 INTLOC = 7732
 II,JST,KST,LST = 95  1  1  1 NREC =      8545 INTLOC = 7846
 II,JST,KST,LST = 96  1  1  1 NREC =      9534 INTLOC = 4794
 II,JST,KST,LST = 97  1  1  1 NREC =      9718 INTLOC = 9577
 II,JST,KST,LST = 98  1  1  1 NREC =      9902 INTLOC =10134
 II,JST,KST,LST = 99  1  1  1 NREC =     10441 INTLOC = 8156
 II,JST,KST,LST =100  1  1  1 NREC =     10982 INTLOC = 2029
 II,JST,KST,LST =101  1  1  1 NREC =     11994 INTLOC =  937
 II,JST,KST,LST =102  1  1  1 NREC =     12222 INTLOC = 7290
 II,JST,KST,LST =103  1  1  1 NREC =     12877 INTLOC =11571
 II,JST,KST,LST =104  1  1  1 NREC =     14178 INTLOC =10706
 II,JST,KST,LST =105  1  1  1 NREC =     14422 INTLOC =10756
 II,JST,KST,LST =106  1  1  1 NREC =     14662 INTLOC = 1817
 II,JST,KST,LST =107  1  1  1 NREC =     15373 INTLOC =14992
 II,JST,KST,LST =108  1  1  1 NREC =     16069 INTLOC =  652
 II,JST,KST,LST =109  1  1  1 NREC =     17316 INTLOC = 4859
 II,JST,KST,LST =110  1  1  1 NREC =     17616 INTLOC =11787
 II,JST,KST,LST =111  1  1  1 NREC =     18477 INTLOC =13886
 II,JST,KST,LST =112  1  1  1 NREC =     20122 INTLOC = 7342
 II,JST,KST,LST =113  1  1  1 NREC =     20399 INTLOC =12586
 II,JST,KST,LST =114  1  1  1 NREC =     20672 INTLOC =13856
 II,JST,KST,LST =115  1  1  1 NREC =     21496 INTLOC = 7207
 II,JST,KST,LST =116  1  1  1 NREC =     22264 INTLOC =11861
 II,JST,KST,LST =117  1  1  1 NREC =     23641 INTLOC =13904
 II,JST,KST,LST =118  1  1  1 NREC =     24008 INTLOC = 8759
 II,JST,KST,LST =119  1  1  1 NREC =     25063 INTLOC = 1547
 II,JST,KST,LST =120  1  1  1 NREC =     26863 INTLOC =12762
 II,JST,KST,LST =121  1  1  1 NREC =     27183 INTLOC =11048
 II,JST,KST,LST =122  1  1  1 NREC =     27498 INTLOC =11671
 II,JST,KST,LST =123  1  1  1 NREC =     28447 INTLOC = 1155
 II,JST,KST,LST =124  1  1  1 NREC =     29325 INTLOC =11972
 II,JST,KST,LST =125  1  1  1 NREC =     30882 INTLOC =  892
 II,JST,KST,LST =126  1  1  1 NREC =     31313 INTLOC =10422
 II,JST,KST,LST =127  1  1  1 NREC =     32557 INTLOC = 5101
 SCHWARZ INEQUALITY TEST SKIPPED   2341286 INTEGRAL BLOCKS.
 TOTAL NUMBER OF NONZERO TWO-ELECTRON INTEGRALS =           518959782
      34598 INTEGRAL RECORDS WERE STORED ON DISK FILE  8.
  ...... END OF TWO-ELECTRON INTEGRALS .....
 STEP CPU TIME =   192.99 TOTAL CPU TIME =      195.1 (    3.3 MIN)
 TOTAL WALL CLOCK TIME=      208.0 SECONDS, CPU UTILIZATION IS  93.79%

          -----------------
          MCSCF CALCULATION
          -----------------

 ----- NUCLEAR ENERGY ----- =       201.6502952895

          -----------------------     ----------------------------
          GUGA DISTINCT ROW TABLE     WRITTEN BY B.R.BROOKS,P.SAXE
          -----------------------     ----------------------------

      GROUP=C1           NPRT=       2
       FORS=       T   INTACT=       F
       FOCI=       F   MXNINT=  600000
       SOCI=       F   MXNEME=   10000
     IEXCIT=       0

      -CORE-    -INTERNAL-  -EXTERNAL-
     NFZC=   0   NDOC=   1   NEXT=   0
     NMCC=  23   NAOS=   0   NFZV=   0
                 NBOS=   0
                 NALP=   0
                 NVAL=   1

 THE MAXIMUM ELECTRON EXCITATION WILL BE   2

 SYMMETRIES FOR THE  23 CORE,   2 ACTIVE,   0 EXTERNAL MO-S ARE
     CORE= A     A     A     A     A     A     A     A     A     A   
           A     A     A     A     A     A     A     A     A     A   
           A     A     A   
   ACTIVE= A     A   
           DOC   VAL 

 MOLECULAR CHARGE          =    1
 NUMBER OF ALPHA ELECTRONS =   24
 NUMBER OF  BETA ELECTRONS =   24

 THE ELECTRONIC STATE IS  1-A   

 THE DISTINCT ROW TABLE HAS         5 ROWS.
  THE WAVEFUNCTION CONTAINS         3 WALKS (CSF-S).


          DETERMINANT CONTRIBUTION TO CSF'S (BETA IS MINUS)
          -------------------------------------------------
 CASE VECTOR =       1
 14

 FOR MS=S-0
 CSF      1: C(  1)= 1.000000 :   24-24
 CASE VECTOR =       2
 23

 FOR MS=S-0
 CSF      2: C(  1)=-0.707107 :  -25 24
             C(  2)= 0.707107 :   25-24
 CASE VECTOR =       3
 41

 FOR MS=S-0
 CSF      3: C(  1)= 1.000000 :   25-25

 TOTAL NUMBER OF INTEGRALS =          9
 NUMBER OF INTEGRALS/GROUP =          9
 NUMBER OF INTEGRAL GROUPS =          1
 MAXIMUM RECORD SIZES ARE     200 FOR UNIT 11      22 FOR UNIT 12
                            30001 FOR UNIT 15   30001 FOR UNIT 16
 ...... END OF -DRT- GENERATION ...... 
 STEP CPU TIME =     0.01 TOTAL CPU TIME =      195.1 (    3.3 MIN)
 TOTAL WALL CLOCK TIME=      208.0 SECONDS, CPU UTILIZATION IS  93.79%
 OPENING FILE DAFL30 WITH      81 LOGICAL RECORDS OF   99225 WORDS
 WITH A MAXIMUM OF        3969 PHYSICAL RECORDS OF    2048 WORDS

          ------------------------------
          CASSCF INTEGRAL TRANSFORMATION
          ------------------------------
 AO INTEGRALS WILL BE READ IN FROM DISK...
 MEMORY WHICH WOULD BE NEEDED FOR SINGLE PASS TRANSFORMATION =   31882801

 ----- CHOOSING TWO STEPS TRANSFORMATION -----
 NUMBER OF WORDS USED      =     527701
 NUMBER OF WORDS AVAILABLE =    1000000

 ----- NUCLEAR REPULSION ENERGY =    201.65029529
 ----- FROZEN CORE ENERGY       =   -264.90584260

 ... SYMMETRY ...           CPU =    0.07
 ... (PQ|RS) -> (PQ|KL) ... CPU =   14.29
 ... (PQ|KL) -> (IJ|KL) ... CPU =    0.01

 NUMBER OF (PQ|KL) INTEGRALS WRITTEN      84923
 NUMBER OF (IJ|KL) INTEGRALS WRITTEN          4
 ..... END OF CAS INTEGRAL TRANSFORMATION .....
 STEP CPU TIME =    14.37 TOTAL CPU TIME =      209.5 (    3.5 MIN)
 TOTAL WALL CLOCK TIME=      222.0 SECONDS, CPU UTILIZATION IS  94.35%

          ------------------------
          GUGA-CI INTEGRAL SORTING
          ------------------------

    630017 WORDS NEEDED TO SORT              9 GUGA INTEGRALS IN MEMORY
   1000000 WORDS ARE AVAILABLE
 CHOOSING IN-MEMORY SORTING...
 IN CORE ALGORITHM SORTED              3 NON-ZERO 1E- INTEGRALS
 IN CORE ALGORITHM SORTED              4 NON-ZERO 2E- INTEGRALS
 ...... END OF INTEGRAL SORTING ...... 
 STEP CPU TIME =     0.01 TOTAL CPU TIME =      209.5 (    3.5 MIN)
 TOTAL WALL CLOCK TIME=      222.0 SECONDS, CPU UTILIZATION IS  94.36%

 -------------------------     ---------------------------------------
 ENERGY MATRIX CALCULATION     WRITTEN BY B.R.BROOKS,W.D.LAIDIG,P.SAXE
 -------------------------     ---------------------------------------

 COMPUTING THE HAMILTONIAN FOR THE         3 CSF-S...

           8 IS THE TOTAL NUMBER OF GENERATED LOOPS
           8 WERE CREATED BY THE LOOP-DRIVEN ALGORITHM
           0 WERE CREATED IMPLICITLY

           8 IS THE TOTAL NUMBER OF PROCESSED LOOPS
           5     DIAGONAL LOOPS ARE STORED ON WORK15 IN     1 BUFFERS OF  10000 ELEMENTS.
           3 OFF DIAGONAL LOOPS ARE STORED ON WORK16 IN     1 BUFFERS OF  10000 ELEMENTS.
 ...... END OF ENERGY MATRIX CALCULATION ...... 
 STEP CPU TIME =     0.00 TOTAL CPU TIME =      209.5 (    3.5 MIN)
 TOTAL WALL CLOCK TIME=      222.0 SECONDS, CPU UTILIZATION IS  94.36%

          -----------------------------------------
          DAVIDSON METHOD CI-MATRIX DIAGONALIZATION
                   WRITTEN BY STEVE ELBERT
          -----------------------------------------
 NUMBER OF STATES REQUESTED =     2
 MAX. NUMB. OF EXPAN. VEC   =    30
 MAX. NUMB. IMPROVED STATES =     2
 MAX. NUMB. OF ITERATIONS   =    50
 CONVERGENCE CRITERION      =    1.0E-05

 CHOOSING TO SOLVE SECULAR EQUATION IN MEMORY
 NUMBER OF WORDS AVAILABLE =    1000000
 NUMBER OF WORDS USED      =      31041
 ENERGY MATRIX BUFFER SIZE =      10000
 SOLUTION FOUND WITH DIRECT METHOD

 STATE #    1  ENERGY =     -64.300675416

      CSF      COEF    OCCUPANCY (IGNORING CORE)
      ---      ----    --------- --------- -----
        1    0.992670  20
        3   -0.120856  02

 STATE #    2  ENERGY =     -64.120990513

      CSF      COEF    OCCUPANCY (IGNORING CORE)
      ---      ----    --------- --------- -----
        2    1.000000  11

 RENORMALIZED DAVIDSON CORRECTION FOR     1-REFERENCE CI.
 C0SQ= 0.985394 EREF=      -64.295897 E-E(REF)=   0.004778 E(Q)=   0.000071
 GIVES A E(SD+Q) ESTIMATE OF      -64.3007462393
 ...... END OF CI-MATRIX DIAGONALIZATION ......
 STEP CPU TIME =     0.01 TOTAL CPU TIME =      209.5 (    3.5 MIN)
 TOTAL WALL CLOCK TIME=      222.0 SECONDS, CPU UTILIZATION IS  94.36%

          -------------------------------------
          2-PARTICLE DENSITY MATRIX CALCULATION
          -------------------------------------
 2 BODY DENSITY IS AN AVERAGE OF  2 STATE(S).
   STATE    WEIGHT          ENERGY
     1    0.500000      -64.3006754158
     2    0.500000      -64.1209905128
            8 -DM2- LOOPS WERE GENERATED
            8 WERE CREATED BY THE LOOP-DRIVEN ALGORITHM
            0 WERE CREATED IMPLICITLY
          1 RECORDS OF LENGTH600000 WRITTEN TO FILE 15
 ...... END OF 2-PARTICLE DENSITY MATRIX CALCULATION ......
 STEP CPU TIME =     0.00 TOTAL CPU TIME =      209.5 (    3.5 MIN)
 TOTAL WALL CLOCK TIME=      222.0 SECONDS, CPU UTILIZATION IS  94.36%

          ----------------------------------
          2-PARTICLE DENSITY MATRIX LABELING
          ----------------------------------
     646723 WORDS NEEDED TO LABEL DM2 MATRIX
          1 RECORDS OF LENGTH600000  READ FROM FILE 15
          1 RECORDS OF LENGTH 15000 WRITTEN TO FILE 16
 ...... END OF 2-PARTICLE DENSITY MATRIX LABELING ......
 STEP CPU TIME =     0.00 TOTAL CPU TIME =      209.5 (    3.5 MIN)
 TOTAL WALL CLOCK TIME=      222.0 SECONDS, CPU UTILIZATION IS  94.36%

          --------------
          -DM2- ORDERING
          --------------
      30010 WORDS NEEDED (   1000000 AVAILABLE) TO ORDER DM2 IN MEMORY
 CHOOSING IN MEMORY ORDERING...
                               1 RECORDS OF LENGTH 15000  READ FROM FILE 16
          6 DM2 VALUES IN      1 RECORDS OF LENGTH 15000 WRITTEN TO FILE 15
 ...... END OF -DM2- ORDERING ...... 
 STEP CPU TIME =     0.00 TOTAL CPU TIME =      209.5 (    3.5 MIN)
 TOTAL WALL CLOCK TIME=      222.0 SECONDS, CPU UTILIZATION IS  94.36%

          --------------------------------------
          APPROXIMATE SECOND-ORDER MCSCF PROGRAM
          --------------------------------------
          PROGRAM WRITTEN BY G.CHABAN, A.MARQUEZ, AND M.DUPUIS

  NUMBER OF WORDS NEEDED     =     783942
  NUMBER AVAILABLE           =    1000000

 ----- GAMMA(IJKL)*(PQ|KL) PRODUCTS ----- CPU TIME =      0.010
 ----- ORBITAL SYMMETRY             ----- CPU TIME =      0.000
 ----- FOCK OPERATORS CONSTRUCTION  ----- CPU TIME =      5.880
 ----- WARNING : CORE-ACTIVE GAP    =    0.29252
 ----- WARNING : ACTIVE-VIRTUAL GAP =    0.33553
     MICIT =   1 ASYMM =    0.025029 ROTMAX =    0.014277
 ----- EFFECTIVE FOCK + ROTATE ORBS ----- CPU TIME =      0.070
     MICIT =   2 ASYMM =    0.019741 ROTMAX =    0.003548
     MICIT =   3 ASYMM =    0.018417 ROTMAX =    0.005921
     MICIT =   4 ASYMM =    0.016195 ROTMAX =    0.006574
     MICIT =   5 ASYMM =    0.013716 ROTMAX =    0.005769
 ..... DONE WITH CASSCF ORBITAL UPDATE .....
 STEP CPU TIME =     6.59 TOTAL CPU TIME =      216.1 (    3.6 MIN)
 TOTAL WALL CLOCK TIME=      228.0 SECONDS, CPU UTILIZATION IS  94.77%

 ITER     TOTAL ENERGY      DEL(E)  LAGRANGIAN ASYMMETRY   SQCDF  MICIT   DAMP
   1      -64.210832964 -0.210832964  0.025029   40   24 1.428E-02  5   0.0000
       ----------START APPROXIMATE SECOND ORDER MCSCF----------
   2      -64.215308810 -0.004475846  0.010120   25   23 1.646E-03  1   0.0000
   3      -64.216112624 -0.000803814  0.002979   40   24 9.104E-04  1   0.0000
   4      -64.216270748 -0.000158123  0.001757   40   24 7.748E-05  1   0.0000
   5      -64.216300679 -0.000029932  0.000658   25   23 5.549E-05  1   0.0000
   6      -64.216309267 -0.000008587  0.000349   62   22 3.183E-06  1   0.0000
   7      -64.216310206 -0.000000939  0.000082   66   23 2.478E-07  1   0.0000
   8      -64.216310311 -0.000000105  0.000025   25   23 4.457E-08  1   0.0000
   9      -64.216310323 -0.000000012  0.000007   37   23 2.992E-09  1   0.0000
  10      -64.216310324 -0.000000001  0.000004   40   22 6.297E-10  1   0.0000

          --------------------
          LAGRANGIAN CONVERGED
          --------------------

 FINAL MCSCF ENERGY IS      -64.2163103238 AFTER  10 ITERATIONS

 -MCCI- BASED ON OPTIMIZED ORBITALS
 ----------------------------------

 PLEASE NOTE: IF THE ACTIVE ORBITALS ARE CANONICALIZED BELOW,
 THE FOLLOWING CI EXPANSION COEFFICIENTS AND THE DENSITY DO NOT
 CORRESPOND TO THE PRINTED ORBITALS.  THE PRINTED EXPANSIONS MATCH
 THE ORBITALS USED DURING THE LAST ITERATION.  IF YOU WISH TO SEE
 CI EXPANSIONS BASED ON THE CANONICAL (OR NATURAL) ORBITALS, YOU
 MUST RUN A CI CALCULATION WITH THAT ORBITAL CHOICE READ IN $VEC.

 STATE #    1  ENERGY =     -64.293216567

      CSF      COEF    OCCUPANCY (IGNORING CORE)
      ---      ----    --------- --------- -----
        1    0.994724  20
        2    0.000000  11
        3   -0.102592  02

 STATE #    2  ENERGY =     -64.139404081

      CSF      COEF    OCCUPANCY (IGNORING CORE)
      ---      ----    --------- --------- -----
        1    0.000000  20
        2    1.000000  11
        3    0.000000  02

 DENSITY MATRIX OVER ACTIVE MO-S

             1           2

    1    1.4894749
    2   -0.0000002   0.5105251

 FORMING THE "STANDARD FOCK OPERATOR" USING INTEGRALS FROM DISK...
    23 FILLED,    2 ACTIVE, AND  272 VIRTUAL ORBITALS  WILL BE CANONICALIZED

          ----------------------
          MCSCF NATURAL ORBITALS
          ----------------------

                      1          2          3          4          5

                   -1.4015    -1.4014    -1.2595    -1.2126    -1.1422

    1  H  1  S    0.004330   0.000000   0.099997   0.000000  -0.093493
    2  H  1  S   -0.041842  -0.000002  -0.118792   0.000000   0.005309
    3  H  1  X    0.000000   0.000000   0.000000   0.000000   0.000000
    4  H  1  Y    0.000000   0.000193   0.000000   0.001162   0.000000
    5  H  1  Z    0.000801   0.000000   0.014916   0.000000  -0.011482
    6  H  1  S    0.029260   0.000002  -0.064201   0.000000   0.099557
    7  H  1  X    0.000000   0.000000   0.000000   0.000000   0.000000
    8  H  1  Y    0.000000  -0.008430   0.000000   0.006508   0.000000
    9  H  1  Z    0.006872   0.000000   0.009887   0.000000  -0.001896
   10  H  2  S    0.008523   0.007162   0.100723  -0.079584  -0.029664
   11  H  2  S   -0.031646  -0.010364  -0.114787   0.055149  -0.017298
   12  H  2  X    0.000000   0.000000   0.000000   0.000000   0.000000
   13  H  2  Y    0.000338   0.000384   0.000035   0.001186  -0.002900
   14  H  2  Z   -0.001491  -0.001287  -0.013990   0.010186   0.003869
   15  H  2  S    0.021966  -0.006344  -0.013919   0.106488   0.007236
[...]
             86  H 10  Z      0.01896     0.04122
             87  H 10  S      0.00039     0.01309
             88  H 10  X      0.00968     0.05312
             89  H 10  Y      0.00533     0.04688
             90  H 10  Z     -0.00086     0.04335
             91  H 11  S      0.87894     0.40326
             92  H 11  S     -0.00071     0.13160
             93  H 11  X      0.02360     0.05112
             94  H 11  Y      0.02534     0.04551
             95  H 11  Z      0.01896     0.04122
             96  H 11  S      0.00039     0.01309
             97  H 11  X      0.00968     0.05312
             98  H 11  Y      0.00533     0.04688
             99  H 11  Z     -0.00086     0.04335
            100  C 12  S      1.51963     0.31595
            101  C 12  S     -1.19137     0.11128
            102  C 12  X      1.00911     0.61823
            103  C 12  Y      1.14619     0.73198
            104  C 12  Z      1.19867     0.77962
            105  C 12  X     -0.01448     0.17645
            106  C 12  Y     -0.21317     0.16366
            107  C 12  Z      0.02056     0.19637
            108  C 12 XX      0.02588     0.04550
            109  C 12 YY      0.01311     0.16908
            110  C 12 ZZ      0.01248     0.14951
            111  C 12 XY      0.00472     0.02256
            112  C 12 XZ      0.02773     0.00685
            113  C 12 YZ      0.00000     0.06050
            114  C 12  S     -0.56655     0.03759
            115  C 12  X      0.00399     0.01830
            116  C 12  Y      0.59045     0.03908
            117  C 12  Z     -0.05623     0.02268
            118  C 12 XX      0.01761     0.00045
            119  C 12 YY     -0.00767     0.10555
            120  C 12 ZZ      0.02031     0.09978
            121  C 12 XY     -0.00097     0.07909
            122  C 12 XZ      0.11514     0.01493
            123  C 12 YZ      0.00000     0.11646
            124  C 13  S      1.54573     0.32298
            125  C 13  S     -0.90267     0.11051
            126  C 13  X      0.83269     0.50383
            127  C 13  Y      1.18656     0.75142
            128  C 13  Z      1.21794     0.78799
            129  C 13  X     -0.02346     0.15480
            130  C 13  Y     -0.18240     0.16267
            131  C 13  Z      0.00905     0.19382
            132  C 13 XX      0.02731     0.04623
            133  C 13 YY      0.01462     0.17340
            134  C 13 ZZ      0.02279     0.14743
            135  C 13 XY      0.00370     0.03864
            136  C 13 XZ      0.02550     0.00623
            137  C 13 YZ      0.00000     0.05451
            138  C 13  S     -0.40121     0.03771
            139  C 13  X     -0.02031     0.01760
            140  C 13  Y      0.46248     0.04019
            141  C 13  Z     -0.05455     0.02267
            142  C 13 XX      0.01693     0.00069
            143  C 13 YY     -0.00469     0.11223
            144  C 13 ZZ      0.05075     0.09448
            145  C 13 XY     -0.00167     0.12797
            146  C 13 XZ      0.13913     0.01450
            147  C 13 YZ      0.00000     0.11991
            148  C 14  S      1.54573     0.32298
            149  C 14  S     -0.90266     0.11051
            150  C 14  X      0.83269     0.50383
            151  C 14  Y      1.18656     0.75142
            152  C 14  Z      1.21794     0.78799
            153  C 14  X     -0.02346     0.15480
            154  C 14  Y     -0.18240     0.16267
            155  C 14  Z      0.00905     0.19382
            156  C 14 XX      0.02731     0.04623
            157  C 14 YY      0.01462     0.17340
            158  C 14 ZZ      0.02279     0.14743
            159  C 14 XY      0.00370     0.03864
            160  C 14 XZ      0.02550     0.00623
            161  C 14 YZ      0.00000     0.05451
            162  C 14  S     -0.40121     0.03771
            163  C 14  X     -0.02031     0.01760
            164  C 14  Y      0.46248     0.04019
            165  C 14  Z     -0.05455     0.02267
            166  C 14 XX      0.01693     0.00069
            167  C 14 YY     -0.00469     0.11223
            168  C 14 ZZ      0.05075     0.09448
            169  C 14 XY     -0.00167     0.12797
            170  C 14 XZ      0.13913     0.01450
            171  C 14 YZ      0.00000     0.11991
            172  C 15  S      1.50398     0.31402
            173  C 15  S     -0.98944     0.11164
            174  C 15  X      1.07419     0.66111
            175  C 15  Y      1.13616     0.72535
            176  C 15  Z      1.18911     0.77372
            177  C 15  X     -0.01744     0.18478
            178  C 15  Y     -0.05855     0.16195
            179  C 15  Z     -0.21151     0.19703
            180  C 15 XX      0.02391     0.04512
            181  C 15 YY      0.01242     0.16687
            182  C 15 ZZ      0.01054     0.14753
            183  C 15 XY      0.00531     0.01901
            184  C 15 XZ      0.02829     0.00739
            185  C 15 YZ      0.00000     0.06256
            186  C 15  S     -0.58930     0.03780
            187  C 15  X     -0.00173     0.01818
            188  C 15  Y      0.29800     0.03525
            189  C 15  Z     -0.01549     0.02295
            190  C 15 XX      0.03550     0.00039
            191  C 15 YY     -0.00008     0.09490
            192  C 15 ZZ      0.02498     0.09728
            193  C 15 XY     -0.00184     0.07081
            194  C 15 XZ      0.07327     0.01517
            195  C 15 YZ      0.00000     0.11635
            196  C 16  S      1.50398     0.31402
            197  C 16  S     -0.98944     0.11164
            198  C 16  X      1.07419     0.66111
            199  C 16  Y      1.13616     0.72535
            200  C 16  Z      1.18911     0.77372
            201  C 16  X     -0.01744     0.18478
            202  C 16  Y     -0.05855     0.16195
            203  C 16  Z     -0.21151     0.19703
            204  C 16 XX      0.02391     0.04512
            205  C 16 YY      0.01242     0.16687
            206  C 16 ZZ      0.01054     0.14753
            207  C 16 XY      0.00531     0.01901
            208  C 16 XZ      0.02829     0.00739
            209  C 16 YZ      0.00000     0.06256
            210  C 16  S     -0.58930     0.03780
            211  C 16  X     -0.00173     0.01818
            212  C 16  Y      0.29800     0.03525
            213  C 16  Z     -0.01549     0.02295
            214  C 16 XX      0.03550     0.00039
            215  C 16 YY     -0.00008     0.09490
            216  C 16 ZZ      0.02498     0.09728
            217  C 16 XY     -0.00184     0.07081
            218  C 16 XZ      0.07327     0.01517
            219  C 16 YZ      0.00000     0.11635
            220  C 17  S      1.51883     0.31416
            221  C 17  S     -0.14092     0.10924
            222  C 17  X      0.79032     0.46607
            223  C 17  Y      1.10807     0.68276
            224  C 17  Z      1.24934     0.79574
            225  C 17  X     -0.07601     0.13632
            226  C 17  Y      0.07695     0.14930
            227  C 17  Z     -0.24259     0.18169
            228  C 17 XX      0.03149     0.04303
            229  C 17 YY      0.02037     0.17720
            230  C 17 ZZ      0.03812     0.15393
            231  C 17 XY      0.00497     0.06563
            232  C 17 XZ      0.03064     0.00771
            233  C 17 YZ      0.00000     0.06481
            234  C 17  S     -0.11668     0.03664
            235  C 17  X      0.00726     0.01621
            236  C 17  Y      0.06505     0.03084
            237  C 17  Z      0.02294     0.01925
            238  C 17 XX      0.01235     0.00059
            239  C 17 YY      0.02247     0.12199
            240  C 17 ZZ      0.04681     0.09265
            241  C 17 XY     -0.00493     0.14185
            242  C 17 XZ      0.04935     0.01470
            243  C 17 YZ      0.00000     0.11583
            244  C 18  S      1.51883     0.31416
            245  C 18  S     -0.14093     0.10924
            246  C 18  X      0.79032     0.46607
            247  C 18  Y      1.10807     0.68276
            248  C 18  Z      1.24934     0.79574
            249  C 18  X     -0.07601     0.13632
            250  C 18  Y      0.07695     0.14930
            251  C 18  Z     -0.24258     0.18169
            252  C 18 XX      0.03149     0.04303
            253  C 18 YY      0.02037     0.17720
            254  C 18 ZZ      0.03812     0.15393
            255  C 18 XY      0.00497     0.06563
            256  C 18 XZ      0.03064     0.00771
            257  C 18 YZ      0.00000     0.06481
            258  C 18  S     -0.11668     0.03664
            259  C 18  X      0.00726     0.01621
            260  C 18  Y      0.06505     0.03084
            261  C 18  Z      0.02294     0.01925
            262  C 18 XX      0.01235     0.00059
            263  C 18 YY      0.02247     0.12199
            264  C 18 ZZ      0.04681     0.09265
            265  C 18 XY     -0.00493     0.14185
            266  C 18 XZ      0.04935     0.01470
            267  C 18 YZ      0.00000     0.11583
            268  N 19  S      1.62913     0.42334
            269  N 19  S     -0.57903     0.15284
            270  N 19  X      1.53495     1.05641
            271  N 19  Y      1.28759     0.88289
            272  N 19  Z      1.32839     0.91771
            273  N 19  X      0.07980     0.30030
            274  N 19  Y     -0.21555     0.27382
            275  N 19  Z     -0.15333     0.29860
            276  N 19 XX      0.00964     0.08109
            277  N 19 YY      0.00605     0.15692
            278  N 19 ZZ      0.00384     0.14557
            279  N 19 XY      0.00045     0.00524
            280  N 19 XZ      0.01282     0.00067
            281  N 19 YZ      0.00000     0.02818
            282  N 19  S     -0.16968     0.04223
            283  N 19  X     -0.00320     0.02364
            284  N 19  Y     -0.02272     0.03559
            285  N 19  Z     -0.04722     0.02412
            286  N 19 XX     -0.00534     0.00014
            287  N 19 YY     -0.00083     0.07103
            288  N 19 ZZ      0.01107     0.05419
            289  N 19 XY      0.00078     0.03983
            290  N 19 XZ     -0.00337     0.00426
            291  N 19 YZ      0.00000     0.10529
            292  N 20  S      1.62913     0.42334
            293  N 20  S     -0.57903     0.15284
            294  N 20  X      1.53495     1.05641
            295  N 20  Y      1.28759     0.88289
            296  N 20  Z      1.32839     0.91771
            297  N 20  X      0.07980     0.30030
            298  N 20  Y     -0.21555     0.27382
            299  N 20  Z     -0.15333     0.29860
            300  N 20 XX      0.00964     0.08109
            301  N 20 YY      0.00605     0.15692
            302  N 20 ZZ      0.00384     0.14557
            303  N 20 XY      0.00045     0.00524
            304  N 20 XZ      0.01282     0.00067
            305  N 20 YZ      0.00000     0.02818
            306  N 20  S     -0.16968     0.04223
            307  N 20  X     -0.00320     0.02364
            308  N 20  Y     -0.02272     0.03559
            309  N 20  Z     -0.04722     0.02412
            310  N 20 XX     -0.00534     0.00014
            311  N 20 YY     -0.00083     0.07103
            312  N 20 ZZ      0.01107     0.05419
            313  N 20 XY      0.00078     0.03983
            314  N 20 XZ     -0.00337     0.00426
            315  N 20 YZ      0.00000     0.10529

          ----- MULLIKEN ATOMIC OVERLAP POPULATIONS -----
          (OFF-DIAGONAL ELEMENTS NEED TO BE MULTIPLIED BY 2)

             1           2           3           4           5

    1    0.9187031
    2   -0.0037200   1.0089276
    3   -0.0037200  -0.0502679   1.0089278
    4   -0.0261989  -0.0035126  -0.0014678   0.8821990
    5   -0.0261989  -0.0014678  -0.0035127   0.0012395   0.8821987
    6    0.0008353  -0.0183977   0.0014707  -0.0044826  -0.0001819
    7    0.0008353   0.0014706  -0.0183975  -0.0001819  -0.0044825
    8    0.0016007  -0.0018534   0.0003393  -0.0081807  -0.0000419
    9    0.0016007   0.0003393  -0.0018534  -0.0000419  -0.0081807
   10   -0.0000586   0.0022303  -0.0002472  -0.0021590   0.0000103
   11   -0.0000586  -0.0002472   0.0022303   0.0000103  -0.0021590
   12   -0.0309401   0.1043328   0.1043337  -0.1314998  -0.1314990
   13    0.1219157  -0.1707672  -0.0801202   0.1337727   0.0359013
   14    0.1219155  -0.0801196  -0.1707676   0.0359016   0.1337712
   15   -0.0768879   0.2026104  -0.0172448   0.0744081  -0.0114619
   16   -0.0768875  -0.0172447   0.2026103  -0.0114619   0.0744092
   17    0.0122345   0.0125196  -0.0192542   0.0978582  -0.0000695
   18    0.0122343  -0.0192542   0.0125199  -0.0000695   0.0978582
   19   -0.0000342  -0.0069367   0.0018143  -0.0054169   0.0002455
   20   -0.0000342   0.0018143  -0.0069367   0.0002455  -0.0054169

             6           7           8           9          10

    6    0.9285736
    7    0.0003018   0.9285737
    8    0.0096230  -0.0000176   0.5887827
    9   -0.0000176   0.0096230   0.0000003   0.5887828
   10    0.0010355   0.0000099  -0.0280148  -0.0000004   0.5928093
   11    0.0000099   0.0010355  -0.0000004  -0.0280147  -0.0000007
   12    0.0461077   0.0461076   0.0103322   0.0103322   0.0014140
   13   -0.1754883  -0.0159245  -0.0110924  -0.0008200  -0.0099345
   14   -0.0159245  -0.1754881  -0.0008200  -0.0110924  -0.0009742
   15    0.3148619   0.0000761   0.0339921  -0.0000487  -0.0015525
   16    0.0000761   0.3148619  -0.0000487   0.0339922   0.0001792
   17    0.0315620   0.0024085  -0.0327933  -0.0000563   0.0097411
   18    0.0024085   0.0315616  -0.0000563  -0.0327935   0.0000246
   19   -0.0173592  -0.0000940   0.3572074  -0.0000012   0.3961543
   20   -0.0000940  -0.0173591  -0.0000012   0.3572075  -0.0000017

            11          12          13          14          15

   11    0.5928092
   12    0.0014139  13.0962173
   13   -0.0009741  -4.0705762  10.0445446
   14   -0.0099343  -4.0705771  -0.3247081  10.0445438
   15    0.0001792  -1.1681743  -2.1729821   0.6270755   7.4323932
   16   -0.0015529  -1.1681708   0.6270739  -2.1729812  -0.1497977
   17    0.0000246   0.5011841   0.0003228  -0.0583536  -1.5725046
   18    0.0097414   0.5011832  -0.0583534   0.0003233   0.0146118
   19   -0.0000017   0.0118015   0.0764350   0.0159862   0.0001859
   20    0.3961543   0.0118017   0.0159862   0.0764349   0.0005373

            16          17          18          19          20

   16    7.4323897
   17    0.0146118   5.1728059
   18   -1.5725040   0.0105645   5.1728045
   19    0.0005373   0.3316110  -0.0002180   3.5423080
   20    0.0001866  -0.0002180   0.3316108  -0.0000019   3.5423079

          TOTAL MULLIKEN AND LOWDIN ATOMIC POPULATIONS
       ATOM         MULL.POP.    CHARGE          LOW.POP.     CHARGE
    1 H             0.947136    0.052864         0.896453    0.103547
    2 H             0.960456    0.039544         0.889510    0.110490
    3 H             0.960456    0.039544         0.889510    0.110490
    4 H             1.030961   -0.030961         0.898292    0.101708
    5 H             1.030961   -0.030961         0.898292    0.101708
    6 H             1.104920   -0.104920         0.870963    0.129037
    7 H             1.104920   -0.104920         0.870963    0.129037
    8 H             0.918957    0.081043         0.831569    0.168431
    9 H             0.918957    0.081043         0.831569    0.168431
   10 H             0.960665    0.039335         0.829148    0.170852
   11 H             0.960665    0.039335         0.829148    0.170852
   12 C             3.675125    0.324875         4.081437   -0.081437
   13 C             3.964211    0.035789         4.042413   -0.042413
   14 C             3.964211    0.035789         4.042413   -0.042413
   15 C             3.530277    0.469723         4.087154   -0.087154
   16 C             3.530279    0.469721         4.087154   -0.087154
   17 C             4.514199   -0.514199         3.938113    0.061887
   18 C             4.514197   -0.514197         3.938113    0.061887
   19 N             4.704223    0.295777         5.123893   -0.123893
   20 N             4.704223    0.295777         5.123893   -0.123893

          MULLIKEN SPHERICAL HARMONIC POPULATIONS
       ATOM           S       P       D      F      G      H      I    TOTAL
    1 H             0.96   -0.01    0.00   0.00   0.00   0.00   0.00    0.95
    2 H             0.99   -0.03    0.00   0.00   0.00   0.00   0.00    0.96
    3 H             0.99   -0.03    0.00   0.00   0.00   0.00   0.00    0.96
    4 H             1.03    0.00    0.00   0.00   0.00   0.00   0.00    1.03
    5 H             1.03    0.00    0.00   0.00   0.00   0.00   0.00    1.03
    6 H             1.10    0.01    0.00   0.00   0.00   0.00   0.00    1.10
    7 H             1.10    0.01    0.00   0.00   0.00   0.00   0.00    1.10
    8 H             0.86    0.06    0.00   0.00   0.00   0.00   0.00    0.92
    9 H             0.86    0.06    0.00   0.00   0.00   0.00   0.00    0.92
   10 H             0.88    0.08    0.00   0.00   0.00   0.00   0.00    0.96
   11 H             0.88    0.08    0.00   0.00   0.00   0.00   0.00    0.96
   12 C            -0.24    3.69    0.23   0.00   0.00   0.00   0.00    3.68
   13 C             0.24    3.43    0.29   0.00   0.00   0.00   0.00    3.96
   14 C             0.24    3.43    0.29   0.00   0.00   0.00   0.00    3.96
   15 C            -0.07    3.39    0.21   0.00   0.00   0.00   0.00    3.53
   16 C            -0.07    3.39    0.21   0.00   0.00   0.00   0.00    3.53
   17 C             1.26    3.00    0.25   0.00   0.00   0.00   0.00    4.51
   18 C             1.26    3.00    0.25   0.00   0.00   0.00   0.00    4.51
   19 N             0.88    3.79    0.04   0.00   0.00   0.00   0.00    4.70
   20 N             0.88    3.79    0.04   0.00   0.00   0.00   0.00    4.70

          ---------------------
          ELECTROSTATIC MOMENTS
          ---------------------

 POINT   1           X           Y           Z (BOHR)    CHARGE
                 0.000000    0.000000    0.003789        1.00 (A.U.)
         DX          DY          DZ         /D/  (DEBYE)
     0.000000   -0.000001   -0.846993    0.846993
 ...... END OF PROPERTY EVALUATION ......
 STEP CPU TIME =     0.19 TOTAL CPU TIME =      403.3 (    6.7 MIN)
 TOTAL WALL CLOCK TIME=      418.0 SECONDS, CPU UTILIZATION IS  96.48%
                863397  WORDS OF DYNAMIC MEMORY USED
 EXECUTION OF GAMESS TERMINATED NORMALLY Tue Sep 26 17:35:45 2017
 DDI: 1128 bytes (0.0 MB / 0 MWords) used by master data server.

 ----------------------------------------
 CPU timing information for all processes
 ========================================
 0: 374.627412 + 28.653790 = 403.281202
 ----------------------------------------
 ddikick.x: exited gracefully.
----- accounting info -----
Tue Sep 26 17:35:48 CEST 2017
Files used on the master node lpqlx139 were:
-rw-r--r-- 1 scemama scemama    1668224 Sep 26 17:35 /backup/tmp//gamess/C7.dat
-rw-r--r-- 1 scemama scemama    1543068 Sep 26 17:28 /backup/tmp//gamess/C7.F05
-rw-r--r-- 1 scemama scemama 8304073568 Sep 26 17:32 /backup/tmp//gamess/C7.F08
-rw-r--r-- 1 scemama scemama     638184 Sep 26 17:35 /backup/tmp//gamess/C7.F09
-rw-r--r-- 1 scemama scemama   43844800 Sep 26 17:35 /backup/tmp//gamess/C7.F10
-rw-r--r-- 1 scemama scemama     268000 Sep 26 17:32 /backup/tmp//gamess/C7.F11
-rw-r--r-- 1 scemama scemama        248 Sep 26 17:35 /backup/tmp//gamess/C7.F12
-rw-r--r-- 1 scemama scemama    1022784 Sep 26 17:35 /backup/tmp//gamess/C7.F13
-rw-r--r-- 1 scemama scemama    4800008 Sep 26 17:35 /backup/tmp//gamess/C7.F14
-rw-r--r-- 1 scemama scemama     242624 Sep 26 17:35 /backup/tmp//gamess/C7.F15
-rw-r--r-- 1 scemama scemama     242624 Sep 26 17:35 /backup/tmp//gamess/C7.F16
-rw-r--r-- 1 scemama scemama    1314624 Sep 26 17:35 /backup/tmp//gamess/C7.F23
0.092u 0.944s 7:01.86 0.2%	0+0k 8+3016io 0pf+0w
