----- GAMESS execution script -----
This job is running on host lpqlx139
under operating system Linux at Tue Sep 26 17:36:58 CEST 2017
Available scratch disk space (Kbyte units) at beginning of the job is
Filesystem     1K-blocks      Used Available Use% Mounted on
/dev/sdb1      480720592 262714896 193586420  58% /backup

 Distributed Data Interface kickoff program.
 Initiating 1 compute processes on 1 nodes to run the following command:
 /usr/local/gamess/gamess.01.x C9 

          ******************************************************
          *         GAMESS VERSION = 22 FEB 2006 (R5)          *
          *             FROM IOWA STATE UNIVERSITY             *
          * M.W.SCHMIDT, K.K.BALDRIDGE, J.A.BOATZ, S.T.ELBERT, *
          *   M.S.GORDON, J.H.JENSEN, S.KOSEKI, N.MATSUNAGA,   *
          *          K.A.NGUYEN, S.J.SU, T.L.WINDUS,           *
          *       TOGETHER WITH M.DUPUIS, J.A.MONTGOMERY       *
          *         J.COMPUT.CHEM.  14, 1347-1363(1993)        *
          ***************** AMD 64 BIT VERSION *****************

     SINCE 1993, STUDENTS AND POSTDOCS WORKING AT IOWA STATE UNIVERSITY
     AND ALSO IN THEIR VARIOUS JOBS AFTER LEAVING ISU HAVE MADE IMPORTANT
     CONTRIBUTIONS TO THE CODE:
     IVANA ADAMOVIC, CHRISTINE AIKENS, YURI ALEXEEV, POOJA ARORA, ROB BELL,
     PRADIPTA BANDYOPADHYAY, BRETT BODE, GALINA CHABAN, WEI CHEN,
     CHEOL HO CHOI, PAUL DAY, TIM DUDLEY, DMITRI FEDOROV, GRAHAM FLETCHER,
     MARK FREITAG, KURT GLAESEMANN, GRANT MERRILL, TAKESHI NAGATA,
     HEATHER NETZLOFF, BOSILJKA NJEGIC, RYAN OLSON, MIKE PAK, JIM SHOEMAKER,
     LYUDMILA SLIPCHENKO, JIE SONG, TETSUYA TAKETSUGU, SIMON WEBB.

     ADDITIONAL CODE HAS BEEN PROVIDED BY COLLABORATORS IN OTHER GROUPS:
     IOWA STATE UNIVERSITY: JOE IVANIC, KLAUS RUEDENBERG
     UNIVERSITY OF TOKYO: KIMIHIKO HIRAO, HARUYUKI NAKANO, TAKAHITO
          NAKAJIMA, TAKAO TSUNEDA, MUNEAKI KAMIYA, SUSUMU YANAGISAWA,
          KIYOSHI YAGI
     UNIVERSITY OF SOUTHERN DENMARK: FRANK JENSEN
     UNIVERSITY OF IOWA: VISVALDAS KAIRYS, HUI LI
     NATIONAL INST. OF STANDARDS AND TECHNOLOGY: WALT STEVENS, DAVID GARMER
     UNIVERSITY OF PISA: BENEDETTA MENNUCCI, JACOPO TOMASI
     UNIVERSITY OF MEMPHIS: HENRY KURTZ, PRAKASHAN KORAMBATH
     UNIVERSITY OF ALBERTA: MARIUSZ KLOBUKOWSKI
     UNIVERSITY OF NEW ENGLAND: MARK SPACKMAN
     MIE UNIVERSITY: HIROAKI UMEDA
     MICHIGAN STATE UNIVERSITY:
          KAROL KOWALSKI, MARTA WLOCH, PIOTR PIECUCH
     UNIVERSITY OF SILESIA: MONIKA MUSIAL, STANISLAW KUCHARSKI
     FACULTES UNIVERSITAIRES NOTRE-DAME DE LA PAIX:
          OLIVIER QUINET, BENOIT CHAMPAGNE
     UNIVERSITY OF CALIFORNIA - SANTA BARBARA: BERNARD KIRTMAN
     INSTITUTE FOR MOLECULAR SCIENCE: KAZUYA ISHIMURA AND SHIGERU NAGASE
     UNIVERSITY OF NOTRE DAME: DAN CHIPMAN
     KYUSHU UNIVERSITY:
          FENG LONG GU, JACEK KORCHOWIEC, MARCIN MAKOWSKI, AND YURIKO AOKI
     PENNSYLVANIA STATE UNIVERSITY:
          TZVETELIN IORDANOV, CHET SWALINA, SHARON HAMMES-SCHIFFER

 EXECUTION OF GAMESS BEGUN Tue Sep 26 17:36:59 2017

            ECHO OF THE FIRST FEW INPUT CARDS -
 INPUT CARD> $CONTRL                                                                        
 INPUT CARD>   EXETYP=RUN COORD=UNIQUE  UNITS=ANGS                                          
 INPUT CARD>   RUNTYP=ENERGY SCFTYP=MCSCF CITYP=NONE                                        
 INPUT CARD>   MAXIT=100                                                                    
 INPUT CARD>   ISPHER=1                                                                     
 INPUT CARD>   MULT=1                                                                       
 INPUT CARD>   ICHARG=1                                                                     
 INPUT CARD>   MPLEVL=0                                                                     
 INPUT CARD>   ECP=READ                                                                     
 INPUT CARD> $END                                                                           
 INPUT CARD>                                                                                
 INPUT CARD> $SYSTEM                                                                        
 INPUT CARD>  MWORDS=2000                                                                   
 INPUT CARD> $END                                                                           
 INPUT CARD>                                                                                
 INPUT CARD> $GUESS                                                                         
 INPUT CARD>  GUESS=MOREAD                                                                  
 INPUT CARD>  NORB=359                                                                      
 INPUT CARD> $END                                                                           
 INPUT CARD>                                                                                
 INPUT CARD> $SCF                                                                           
 INPUT CARD>  DIRSCF=.T.                                                                    
 INPUT CARD> $END                                                                           
 INPUT CARD>                                                                                
 INPUT CARD> $MCSCF                                                                         
 INPUT CARD>   FOCAS=.F.    SOSCF=.T.   FULLNR=.F.                                          
 INPUT CARD>   CISTEP=GUGA EKT=.F. QUAD=.F. JACOBI=.f.                                      
 INPUT CARD>   MAXIT=1000                                                                   
 INPUT CARD> $END                                                                           
 INPUT CARD>                                                                                
 INPUT CARD> $GUGDIA                                                                        
 INPUT CARD>  NSTATE=2                                                                      
 INPUT CARD> $END                                                                           
 INPUT CARD>                                                                                
 INPUT CARD> $GUGDM2                                                                        
 INPUT CARD>  WSTATE(1)=0.5,0.5                                                             
 INPUT CARD> $END                                                                           
 INPUT CARD>                                                                                
 INPUT CARD>                                                                                
 INPUT CARD> $DRT                                                                           
 INPUT CARD>  NMCC=28                                                                       
 INPUT CARD>  NDOC=1                                                                        
 INPUT CARD>  NALP=0                                                                        
 INPUT CARD>  NVAL=1                                                                        
 INPUT CARD>  NEXT=0                                                                        
 INPUT CARD>  ISTSYM=1                                                                      
 INPUT CARD>  FORS=.TRUE.                                                                   
 INPUT CARD>  GROUP=C1                                                                      
 INPUT CARD>  MXNINT= 600000                                                                
 INPUT CARD>  NPRT=2                                                                        

 ..... DONE SETTING UP THE RUN .....
 2000000000 WORDS OF MEMORY AVAILABLE

     $BASIS REQUESTS READING THE "BASIS   " BASIS SET FROM AN EXTERNAL FILE


     RUN TITLE
     ---------
 C9                                                                              

 THE POINT GROUP OF THE MOLECULE IS C1      
 THE ORDER OF THE PRINCIPAL AXIS IS     0

 THE EXTERNAL BASIS SET FILE BEING READ IS
     "/home/scemama/Cyanines/Runs/AVDZ_Pseudo/BASIS"
 *** WARNING! ATOM   1 SHELL    1 TYPE S HAS NORMALIZATION   1.32259418
 *** WARNING! ATOM   1 SHELL    3 TYPE P HAS NORMALIZATION  22.65171974
 *** WARNING! ATOM   2 SHELL    6 TYPE S HAS NORMALIZATION   1.32259418
 *** WARNING! ATOM   2 SHELL    8 TYPE P HAS NORMALIZATION  22.65171974
 *** WARNING! ATOM   3 SHELL   11 TYPE S HAS NORMALIZATION   1.32259418
 *** WARNING! ATOM   3 SHELL   13 TYPE P HAS NORMALIZATION  22.65171974
 *** WARNING! ATOM   4 SHELL   16 TYPE S HAS NORMALIZATION   1.32259418
 *** WARNING! ATOM   4 SHELL   18 TYPE P HAS NORMALIZATION  22.65171974
 *** WARNING! ATOM   5 SHELL   21 TYPE S HAS NORMALIZATION   1.32259418
 *** WARNING! ATOM   5 SHELL   23 TYPE P HAS NORMALIZATION  22.65171974
 *** WARNING! ATOM   6 SHELL   26 TYPE S HAS NORMALIZATION   1.32259418
 *** WARNING! ATOM   6 SHELL   28 TYPE P HAS NORMALIZATION  22.65171974
 *** WARNING! ATOM   7 SHELL   31 TYPE S HAS NORMALIZATION   1.32259418
 *** WARNING! ATOM   7 SHELL   33 TYPE P HAS NORMALIZATION  22.65171974
 *** WARNING! ATOM   8 SHELL   36 TYPE S HAS NORMALIZATION   1.32259418
 *** WARNING! ATOM   8 SHELL   38 TYPE P HAS NORMALIZATION  22.65171974
 *** WARNING! ATOM   9 SHELL   41 TYPE S HAS NORMALIZATION   1.32259418
 *** WARNING! ATOM   9 SHELL   43 TYPE P HAS NORMALIZATION  22.65171974
 *** WARNING! ATOM  10 SHELL   46 TYPE S HAS NORMALIZATION   1.32259418
 *** WARNING! ATOM  10 SHELL   48 TYPE P HAS NORMALIZATION  22.65171974
 *** WARNING! ATOM  11 SHELL   51 TYPE S HAS NORMALIZATION   1.32259418
 *** WARNING! ATOM  11 SHELL   53 TYPE P HAS NORMALIZATION  22.65171974
 *** WARNING! ATOM  12 SHELL   56 TYPE S HAS NORMALIZATION   1.32259418
 *** WARNING! ATOM  12 SHELL   58 TYPE P HAS NORMALIZATION  22.65171974
 *** WARNING! ATOM  13 SHELL   61 TYPE S HAS NORMALIZATION   1.32259418
 *** WARNING! ATOM  13 SHELL   63 TYPE P HAS NORMALIZATION  22.65171974

 ATOM      ATOMIC                      COORDINATES (BOHR)
           CHARGE         X                   Y                   Z
 H           1.0     0.0000000000        0.0000000000        2.3456941918
 H           1.0     0.0000000000        2.3869053362       -2.9661592638
 H           1.0     0.0000000000       -2.3869053362       -2.9661592638
 H           1.0     0.0000000000        4.4485623737        2.4712286892
 H           1.0     0.0000000000       -4.4485623737        2.4712286892
 H           1.0     0.0000000000        7.1904962004       -2.6821901396
 H           1.0     0.0000000000       -7.1904962004       -2.6821901396
 H           1.0     0.0000000000        8.8714868350        2.9030783206
 H           1.0     0.0000000000       -8.8714868350        2.9030783206
 H           1.0     0.0000000000       11.8839217087       -1.7963962006
 H           1.0     0.0000000000      -11.8839217087       -1.7963962006
 H           1.0     0.0000000000       12.9193630486        1.2764739999
 H           1.0     0.0000000000      -12.9193630486        1.2764739999
 C           6.0     0.0000000000        0.0000000000        0.2892754747
 C           6.0     0.0000000000        2.3295767189       -0.9159388479
 C           6.0     0.0000000000       -2.3295767189       -0.9159388479
 C           6.0     0.0000000000        4.5726191054        0.4185743063
 C           6.0     0.0000000000       -4.5726191054        0.4185743063
 C           6.0     0.0000000000        6.9826301212       -0.6423310913
 C           6.0     0.0000000000       -6.9826301212       -0.6423310913
 C           6.0     0.0000000000        9.0953740111        0.8646951483
 C           6.0     0.0000000000       -9.0953740111        0.8646951483
 N           7.0     0.0000000000       11.4667420202        0.0576120762
 N           7.0     0.0000000000      -11.4667420202        0.0576120762

          INTERNUCLEAR DISTANCES (ANGS.)
          ------------------------------

                    H              H              H              H         

  1  H               0.0000000      3.0816615      3.0816615      2.3550151 *  
  2  H               3.0816615      0.0000000      2.5261920 *    3.0772291    
  3  H               3.0816615      2.5261920 *    0.0000000      4.6220174    
  4  H               2.3550151 *    3.0772291      4.6220174      0.0000000    
  5  H               2.3550151 *    4.6220174      3.0772291      4.7081560    
  6  H               4.6429946      2.5463888 *    5.0703703      3.0890505    
  7  H               4.6429946      5.0703703      2.5463888 *    6.7358550    
  8  H               4.7038457      4.6283425      6.7186621      2.3516410 *  
  9  H               4.7038457      6.7186621      4.6283425      7.0523705    
 10  H               6.6597437      5.0635839      7.5771244      4.5366632    
 11  H               6.6597437      7.5771244      5.0635839      8.9329549    
 12  H               6.8600064      6.0087279      8.4051238      4.5269220    
 13  H               6.8600064      8.4051238      6.0087279      9.2124314    
 14  C               1.0882100 *    2.1361446 *    2.1361446 *    2.6219986 *  
 15  C               2.1210159 *    1.0853541 *    2.7214638 *    2.1142604 *  
 16  C               2.1210159 *    2.7214638 *    1.0853541 *    4.0097557    
 17  C               2.6258411 *    2.1321159 *    4.0952781      1.0882000 *  
 18  C               2.6258411 *    4.0952781      2.1321159 *    4.8958221    
 19  C               4.0191498      2.7251788 *    5.1083662      2.1243520 *  
 20  C               4.0191498      5.1083662      2.7251788 *    6.2694980    
 21  C               4.8764534      4.0880098      6.4054099      2.6017988 *  
 22  C               4.8764534      6.4054099      4.0880098      7.2173872    
 23  N               6.1875619      5.0642740      7.5036277      3.9273506    
 24  N               6.1875619      7.5036277      5.0642740      8.5183149    

                    H              H              H              H         

  1  H               2.3550151 *    4.6429946      4.6429946      4.7038457    
  2  H               4.6220174      2.5463888 *    5.0703703      4.6283425    
  3  H               3.0772291      5.0703703      2.5463888 *    6.7186621    
  4  H               4.7081560      3.0890505      6.7358550      2.3516410 *  
  5  H               0.0000000      6.7358550      3.0890505      7.0523705    
  6  H               6.7358550      0.0000000      7.6100940      3.0865577    
  7  H               3.0890505      7.6100940      0.0000000      8.9988536    
  8  H               7.0523705      3.0865577      8.9988536      0.0000000    
  9  H               2.3516410 *    8.9988536      3.0865577      9.3891780    
 10  H               8.9329549      2.5275000 *   10.1046261      2.9539196 *  
 11  H               4.5366632     10.1046261      2.5275000 *   11.2613102    
 12  H               9.2124314      3.6849488     10.8459065      2.3085198 *  
 13  H               4.5269220     10.8459065      3.6849488     11.5633037    
 14  C               2.6219986 *    4.1171501      4.1171501      4.8941099    
 15  C               4.0097557      2.7368330 *    5.1237758      4.0085475    
 16  C               2.1142604 *    5.1237758      2.7368330 *    6.2623990    
 17  C               4.8958221      2.1474441 *    6.4374064      2.6274609 *  
 18  C               1.0882000 *    6.4374064      2.1474441 *    7.2347790    
 19  C               6.2694980      1.0850370 *    7.5773772      2.1257984 *  
 20  C               2.1243520 *    7.5773772      1.0850370 *    8.5968578    
 21  C               7.2173872      2.1304859 *    8.8201318      1.0851529 *  
 22  C               2.6017988 *    8.8201318      2.1304859 *    9.5686470    
 23  N               8.5183149      2.6875117 *    9.9788723      2.0379871 *  
 24  N               3.9273506      9.9788723      2.6875117 *   10.8673506    

                    H              H              H              H         

  1  H               4.7038457      6.6597437      6.6597437      6.8600064    
  2  H               6.7186621      5.0635839      7.5771244      6.0087279    
  3  H               4.6283425      7.5771244      5.0635839      8.4051238    
  4  H               7.0523705      4.5366632      8.9329549      4.5269220    
  5  H               2.3516410 *    8.9329549      4.5366632      9.2124314    
  6  H               8.9988536      2.5275000 *   10.1046261      3.6849488    
  7  H               3.0865577     10.1046261      2.5275000 *   10.8459065    
  8  H               9.3891780      2.9539196 *   11.2613102      2.3085198 *  
  9  H               0.0000000     11.2613102      2.9539196 *   11.5633037    
 10  H              11.2613102      0.0000000     12.5774020      1.7159277 *  
 11  H               2.9539196 *   12.5774020      0.0000000     13.2256785    
 12  H              11.5633037      1.7159277 *   13.2256785      0.0000000    
 13  H               2.3085198 *   13.2256785      1.7159277 *   13.6732660    
 14  C               4.8941099      6.3848173      6.3848173      6.8565630    
 15  C               6.2623990      5.0773644      7.5358769      5.7227100    
 16  C               4.0085475      7.5358769      5.0773644      8.1523673    
 17  C               7.2347790      4.0426247      8.7869532      4.4401764    
 18  C               2.6274609 *    8.7869532      4.0426247      9.2674851    
 19  C               8.5968578      2.6645809 *   10.0024109      3.3016000    
 20  C               2.1257984 *   10.0024109      2.6645809 *   10.5805169    
 21  C               9.5686470      2.0397299 *   11.1907196      2.0352665 *  
 22  C               1.0851529 *   11.1907196      2.0397299 *   11.6517357    
 23  N              10.8673506      1.0056297 *   12.3955277      1.0034479 *  
 24  N               2.0379871 *   12.3955277      1.0056297 *   12.9206809    

                    H              C              C              C         

  1  H               6.8600064      1.0882100 *    2.1210159 *    2.1210159 *  
  2  H               8.4051238      2.1361446 *    1.0853541 *    2.7214638 *  
  3  H               6.0087279      2.1361446 *    2.7214638 *    1.0853541 *  
  4  H               9.2124314      2.6219986 *    2.1142604 *    4.0097557    
  5  H               4.5269220      2.6219986 *    4.0097557      2.1142604 *  
  6  H              10.8459065      4.1171501      2.7368330 *    5.1237758    
  7  H               3.6849488      4.1171501      5.1237758      2.7368330 *  
  8  H              11.5633037      4.8941099      4.0085475      6.2623990    
  9  H               2.3085198 *    4.8941099      6.2623990      4.0085475    
 10  H              13.2256785      6.3848173      5.0773644      7.5358769    
 11  H               1.7159277 *    6.3848173      7.5358769      5.0773644    
 12  H              13.6732660      6.8565630      5.7227100      8.1523673    
 13  H               0.0000000      6.8565630      8.1523673      5.7227100    
 14  C               6.8565630      0.0000000      1.3879654 *    1.3879654 *  
 15  C               8.1523673      1.3879654 *    0.0000000      2.4655180 *  
 16  C               5.7227100      1.3879654 *    2.4655180 *    0.0000000    
 17  C               9.2674851      2.4206932 *    1.3811592 *    3.7201286    
 18  C               4.4401764      2.4206932 *    3.7201286      1.3811592 *  
 19  C              10.5805169      3.7277904      2.4665432 *    4.9299346    
 20  C               3.3016000      3.7277904      4.9299346      2.4665432 *  
 21  C              11.6517357      4.8226875      3.7022244      6.1188122    
 22  C               2.0352665 *    4.8226875      6.1188122      3.7022244    
 23  N              12.9206809      6.0691772      4.8625484      7.3188526    
 24  N               1.0034479 *    6.0691772      7.3188526      4.8625484    

                    C              C              C              C         

  1  H               2.6258411 *    2.6258411 *    4.0191498      4.0191498    
  2  H               2.1321159 *    4.0952781      2.7251788 *    5.1083662    
  3  H               4.0952781      2.1321159 *    5.1083662      2.7251788 *  
  4  H               1.0882000 *    4.8958221      2.1243520 *    6.2694980    
  5  H               4.8958221      1.0882000 *    6.2694980      2.1243520 *  
  6  H               2.1474441 *    6.4374064      1.0850370 *    7.5773772    
  7  H               6.4374064      2.1474441 *    7.5773772      1.0850370 *  
  8  H               2.6274609 *    7.2347790      2.1257984 *    8.5968578    
  9  H               7.2347790      2.6274609 *    8.5968578      2.1257984 *  
 10  H               4.0426247      8.7869532      2.6645809 *   10.0024109    
 11  H               8.7869532      4.0426247     10.0024109      2.6645809 *  
 12  H               4.4401764      9.2674851      3.3016000     10.5805169    
 13  H               9.2674851      4.4401764     10.5805169      3.3016000    
 14  C               2.4206932 *    2.4206932 *    3.7277904      3.7277904    
 15  C               1.3811592 *    3.7201286      2.4665432 *    4.9299346    
 16  C               3.7201286      1.3811592 *    4.9299346      2.4665432 *  
 17  C               0.0000000      4.8394520      1.3934226 *    6.1404927    
 18  C               4.8394520      0.0000000      6.1404927      1.3934226 *  
 19  C               1.3934226 *    6.1404927      0.0000000      7.3900980    
 20  C               6.1404927      1.3934226 *    7.3900980      0.0000000    
 21  C               2.4049540 *    7.2366427      1.3732955 *    8.5454072    
 22  C               7.2366427      2.4049540 *    8.5454072      1.3732955 *  
 23  N               3.6532101      8.4898141      2.4016242 *    9.7700116    
 24  N               8.4898141      3.6532101      9.7700116      2.4016242 *  

                    C              C              N              N         

  1  H               4.8764534      4.8764534      6.1875619      6.1875619    
  2  H               4.0880098      6.4054099      5.0642740      7.5036277    
  3  H               6.4054099      4.0880098      7.5036277      5.0642740    
  4  H               2.6017988 *    7.2173872      3.9273506      8.5183149    
  5  H               7.2173872      2.6017988 *    8.5183149      3.9273506    
  6  H               2.1304859 *    8.8201318      2.6875117 *    9.9788723    
  7  H               8.8201318      2.1304859 *    9.9788723      2.6875117 *  
  8  H               1.0851529 *    9.5686470      2.0379871 *   10.8673506    
  9  H               9.5686470      1.0851529 *   10.8673506      2.0379871 *  
 10  H               2.0397299 *   11.1907196      1.0056297 *   12.3955277    
 11  H              11.1907196      2.0397299 *   12.3955277      1.0056297 *  
 12  H               2.0352665 *   11.6517357      1.0034479 *   12.9206809    
 13  H              11.6517357      2.0352665 *   12.9206809      1.0034479 *  
 14  C               4.8226875      4.8226875      6.0691772      6.0691772    
 15  C               3.7022244      6.1188122      4.8625484      7.3188526    
 16  C               6.1188122      3.7022244      7.3188526      4.8625484    
 17  C               2.4049540 *    7.2366427      3.6532101      8.4898141    
 18  C               7.2366427      2.4049540 *    8.4898141      3.6532101    
 19  C               1.3732955 *    8.5454072      2.4016242 *    9.7700116    
 20  C               8.5454072      1.3732955 *    9.7700116      2.4016242 *  
 21  C               0.0000000      9.6261300      1.3255620 *   10.8893826    
 22  C               9.6261300      0.0000000     10.8893826      1.3255620 *  
 23  N               1.3255620 *   10.8893826      0.0000000     12.1358780    
 24  N              10.8893826      1.3255620 *   12.1358780      0.0000000    

  * ... LESS THAN  3.000


     ATOMIC BASIS SET
     ----------------
 THE CONTRACTED PRIMITIVE FUNCTIONS HAVE BEEN UNNORMALIZED
 THE CONTRACTED BASIS FUNCTIONS ARE NOW NORMALIZED TO UNITY

  SHELL TYPE  PRIMITIVE        EXPONENT          CONTRACTION COEFFICIENT(S)

 H         

      1   S       1             0.0130000    0.000933751491
      1   S       2             0.0299000   -0.002802577067
      1   S       3             0.0687700    0.076304426024
      1   S       4             0.1581700    0.305115864344
      1   S       5             0.3637920    0.367168015485
      1   S       6             0.8367210    0.224620137364
      1   S       7             1.9244580    0.128877544677
      1   S       8             4.4262540    0.039632857196
      1   S       9            10.1803850   -0.000597812569

      2   S      10             0.1704830    1.000000000000

      3   P      11             0.0030000    0.028133435917
      3   P      12             0.0078000   -0.020681020122
      3   P      13             0.0202810   -0.001223192866
      3   P      14             0.0527300   -0.005391109298
      3   P      15             0.1370970   -0.261174328600
      3   P      16             0.3564510   -0.413054109456
      3   P      17             0.9267740   -0.315515804256
      3   P      18             2.4096120   -0.212812906956
      3   P      19             6.2649910   -0.007860146750

      4   S      20             0.0297400    1.000000000000

      5   P      21             0.1410000    1.000000000000

 H         

      6   S      22             0.0130000    0.000933751491
      6   S      23             0.0299000   -0.002802577067
      6   S      24             0.0687700    0.076304426024
      6   S      25             0.1581700    0.305115864344
      6   S      26             0.3637920    0.367168015485
      6   S      27             0.8367210    0.224620137364
      6   S      28             1.9244580    0.128877544677
      6   S      29             4.4262540    0.039632857196
      6   S      30            10.1803850   -0.000597812569

      7   S      31             0.1704830    1.000000000000

      8   P      32             0.0030000    0.028133435917
      8   P      33             0.0078000   -0.020681020122
      8   P      34             0.0202810   -0.001223192866
      8   P      35             0.0527300   -0.005391109298
      8   P      36             0.1370970   -0.261174328600
      8   P      37             0.3564510   -0.413054109456
      8   P      38             0.9267740   -0.315515804256
      8   P      39             2.4096120   -0.212812906956
      8   P      40             6.2649910   -0.007860146750

      9   S      41             0.0297400    1.000000000000

     10   P      42             0.1410000    1.000000000000

 H         

     11   S      43             0.0130000    0.000933751491
     11   S      44             0.0299000   -0.002802577067
     11   S      45             0.0687700    0.076304426024
     11   S      46             0.1581700    0.305115864344
     11   S      47             0.3637920    0.367168015485
     11   S      48             0.8367210    0.224620137364
     11   S      49             1.9244580    0.128877544677
     11   S      50             4.4262540    0.039632857196
     11   S      51            10.1803850   -0.000597812569

     12   S      52             0.1704830    1.000000000000

     13   P      53             0.0030000    0.028133435917
     13   P      54             0.0078000   -0.020681020122
     13   P      55             0.0202810   -0.001223192866
     13   P      56             0.0527300   -0.005391109298
     13   P      57             0.1370970   -0.261174328600
     13   P      58             0.3564510   -0.413054109456
     13   P      59             0.9267740   -0.315515804256
     13   P      60             2.4096120   -0.212812906956
     13   P      61             6.2649910   -0.007860146750

     14   S      62             0.0297400    1.000000000000

     15   P      63             0.1410000    1.000000000000

 H         

     16   S      64             0.0130000    0.000933751491
     16   S      65             0.0299000   -0.002802577067
     16   S      66             0.0687700    0.076304426024
     16   S      67             0.1581700    0.305115864344
     16   S      68             0.3637920    0.367168015485
     16   S      69             0.8367210    0.224620137364
     16   S      70             1.9244580    0.128877544677
     16   S      71             4.4262540    0.039632857196
     16   S      72            10.1803850   -0.000597812569

     17   S      73             0.1704830    1.000000000000

     18   P      74             0.0030000    0.028133435917
     18   P      75             0.0078000   -0.020681020122
     18   P      76             0.0202810   -0.001223192866
     18   P      77             0.0527300   -0.005391109298
     18   P      78             0.1370970   -0.261174328600
     18   P      79             0.3564510   -0.413054109456
     18   P      80             0.9267740   -0.315515804256
     18   P      81             2.4096120   -0.212812906956
     18   P      82             6.2649910   -0.007860146750

     19   S      83             0.0297400    1.000000000000

     20   P      84             0.1410000    1.000000000000

 H         

     21   S      85             0.0130000    0.000933751491
     21   S      86             0.0299000   -0.002802577067
     21   S      87             0.0687700    0.076304426024
     21   S      88             0.1581700    0.305115864344
     21   S      89             0.3637920    0.367168015485
     21   S      90             0.8367210    0.224620137364
     21   S      91             1.9244580    0.128877544677
     21   S      92             4.4262540    0.039632857196
     21   S      93            10.1803850   -0.000597812569

     22   S      94             0.1704830    1.000000000000

     23   P      95             0.0030000    0.028133435917
     23   P      96             0.0078000   -0.020681020122
     23   P      97             0.0202810   -0.001223192866
     23   P      98             0.0527300   -0.005391109298
     23   P      99             0.1370970   -0.261174328600
     23   P     100             0.3564510   -0.413054109456
     23   P     101             0.9267740   -0.315515804256
     23   P     102             2.4096120   -0.212812906956
     23   P     103             6.2649910   -0.007860146750

     24   S     104             0.0297400    1.000000000000

     25   P     105             0.1410000    1.000000000000

 H         

     26   S     106             0.0130000    0.000933751491
     26   S     107             0.0299000   -0.002802577067
     26   S     108             0.0687700    0.076304426024
     26   S     109             0.1581700    0.305115864344
     26   S     110             0.3637920    0.367168015485
     26   S     111             0.8367210    0.224620137364
     26   S     112             1.9244580    0.128877544677
     26   S     113             4.4262540    0.039632857196
     26   S     114            10.1803850   -0.000597812569

     27   S     115             0.1704830    1.000000000000

     28   P     116             0.0030000    0.028133435917
     28   P     117             0.0078000   -0.020681020122
     28   P     118             0.0202810   -0.001223192866
     28   P     119             0.0527300   -0.005391109298
     28   P     120             0.1370970   -0.261174328600
     28   P     121             0.3564510   -0.413054109456
     28   P     122             0.9267740   -0.315515804256
     28   P     123             2.4096120   -0.212812906956
     28   P     124             6.2649910   -0.007860146750

     29   S     125             0.0297400    1.000000000000

     30   P     126             0.1410000    1.000000000000

 H         

     31   S     127             0.0130000    0.000933751491
     31   S     128             0.0299000   -0.002802577067
     31   S     129             0.0687700    0.076304426024
     31   S     130             0.1581700    0.305115864344
     31   S     131             0.3637920    0.367168015485
     31   S     132             0.8367210    0.224620137364
     31   S     133             1.9244580    0.128877544677
     31   S     134             4.4262540    0.039632857196
     31   S     135            10.1803850   -0.000597812569

     32   S     136             0.1704830    1.000000000000

     33   P     137             0.0030000    0.028133435917
     33   P     138             0.0078000   -0.020681020122
     33   P     139             0.0202810   -0.001223192866
     33   P     140             0.0527300   -0.005391109298
     33   P     141             0.1370970   -0.261174328600
     33   P     142             0.3564510   -0.413054109456
     33   P     143             0.9267740   -0.315515804256
     33   P     144             2.4096120   -0.212812906956
     33   P     145             6.2649910   -0.007860146750

     34   S     146             0.0297400    1.000000000000

     35   P     147             0.1410000    1.000000000000

 H         

     36   S     148             0.0130000    0.000933751491
     36   S     149             0.0299000   -0.002802577067
     36   S     150             0.0687700    0.076304426024
     36   S     151             0.1581700    0.305115864344
     36   S     152             0.3637920    0.367168015485
     36   S     153             0.8367210    0.224620137364
     36   S     154             1.9244580    0.128877544677
     36   S     155             4.4262540    0.039632857196
     36   S     156            10.1803850   -0.000597812569

     37   S     157             0.1704830    1.000000000000

     38   P     158             0.0030000    0.028133435917
     38   P     159             0.0078000   -0.020681020122
     38   P     160             0.0202810   -0.001223192866
     38   P     161             0.0527300   -0.005391109298
     38   P     162             0.1370970   -0.261174328600
     38   P     163             0.3564510   -0.413054109456
     38   P     164             0.9267740   -0.315515804256
     38   P     165             2.4096120   -0.212812906956
     38   P     166             6.2649910   -0.007860146750

     39   S     167             0.0297400    1.000000000000

     40   P     168             0.1410000    1.000000000000

 H         

     41   S     169             0.0130000    0.000933751491
     41   S     170             0.0299000   -0.002802577067
     41   S     171             0.0687700    0.076304426024
     41   S     172             0.1581700    0.305115864344
     41   S     173             0.3637920    0.367168015485
     41   S     174             0.8367210    0.224620137364
     41   S     175             1.9244580    0.128877544677
     41   S     176             4.4262540    0.039632857196
     41   S     177            10.1803850   -0.000597812569

     42   S     178             0.1704830    1.000000000000

     43   P     179             0.0030000    0.028133435917
     43   P     180             0.0078000   -0.020681020122
     43   P     181             0.0202810   -0.001223192866
     43   P     182             0.0527300   -0.005391109298
     43   P     183             0.1370970   -0.261174328600
     43   P     184             0.3564510   -0.413054109456
     43   P     185             0.9267740   -0.315515804256
     43   P     186             2.4096120   -0.212812906956
     43   P     187             6.2649910   -0.007860146750

     44   S     188             0.0297400    1.000000000000

     45   P     189             0.1410000    1.000000000000

 H         

     46   S     190             0.0130000    0.000933751491
     46   S     191             0.0299000   -0.002802577067
     46   S     192             0.0687700    0.076304426024
     46   S     193             0.1581700    0.305115864344
     46   S     194             0.3637920    0.367168015485
     46   S     195             0.8367210    0.224620137364
     46   S     196             1.9244580    0.128877544677
     46   S     197             4.4262540    0.039632857196
     46   S     198            10.1803850   -0.000597812569

     47   S     199             0.1704830    1.000000000000

     48   P     200             0.0030000    0.028133435917
     48   P     201             0.0078000   -0.020681020122
     48   P     202             0.0202810   -0.001223192866
     48   P     203             0.0527300   -0.005391109298
     48   P     204             0.1370970   -0.261174328600
     48   P     205             0.3564510   -0.413054109456
     48   P     206             0.9267740   -0.315515804256
     48   P     207             2.4096120   -0.212812906956
     48   P     208             6.2649910   -0.007860146750

     49   S     209             0.0297400    1.000000000000

     50   P     210             0.1410000    1.000000000000

 H         

     51   S     211             0.0130000    0.000933751491
     51   S     212             0.0299000   -0.002802577067
     51   S     213             0.0687700    0.076304426024
     51   S     214             0.1581700    0.305115864344
     51   S     215             0.3637920    0.367168015485
     51   S     216             0.8367210    0.224620137364
     51   S     217             1.9244580    0.128877544677
     51   S     218             4.4262540    0.039632857196
     51   S     219            10.1803850   -0.000597812569

     52   S     220             0.1704830    1.000000000000

     53   P     221             0.0030000    0.028133435917
     53   P     222             0.0078000   -0.020681020122
     53   P     223             0.0202810   -0.001223192866
     53   P     224             0.0527300   -0.005391109298
     53   P     225             0.1370970   -0.261174328600
     53   P     226             0.3564510   -0.413054109456
     53   P     227             0.9267740   -0.315515804256
     53   P     228             2.4096120   -0.212812906956
     53   P     229             6.2649910   -0.007860146750

     54   S     230             0.0297400    1.000000000000

     55   P     231             0.1410000    1.000000000000

 H         

     56   S     232             0.0130000    0.000933751491
     56   S     233             0.0299000   -0.002802577067
     56   S     234             0.0687700    0.076304426024
     56   S     235             0.1581700    0.305115864344
     56   S     236             0.3637920    0.367168015485
     56   S     237             0.8367210    0.224620137364
     56   S     238             1.9244580    0.128877544677
     56   S     239             4.4262540    0.039632857196
     56   S     240            10.1803850   -0.000597812569

     57   S     241             0.1704830    1.000000000000

     58   P     242             0.0030000    0.028133435917
     58   P     243             0.0078000   -0.020681020122
     58   P     244             0.0202810   -0.001223192866
     58   P     245             0.0527300   -0.005391109298
     58   P     246             0.1370970   -0.261174328600
     58   P     247             0.3564510   -0.413054109456
     58   P     248             0.9267740   -0.315515804256
     58   P     249             2.4096120   -0.212812906956
     58   P     250             6.2649910   -0.007860146750

     59   S     251             0.0297400    1.000000000000

     60   P     252             0.1410000    1.000000000000

 H         

     61   S     253             0.0130000    0.000933751491
     61   S     254             0.0299000   -0.002802577067
     61   S     255             0.0687700    0.076304426024
     61   S     256             0.1581700    0.305115864344
     61   S     257             0.3637920    0.367168015485
     61   S     258             0.8367210    0.224620137364
     61   S     259             1.9244580    0.128877544677
     61   S     260             4.4262540    0.039632857196
     61   S     261            10.1803850   -0.000597812569

     62   S     262             0.1704830    1.000000000000

     63   P     263             0.0030000    0.028133435917
     63   P     264             0.0078000   -0.020681020122
     63   P     265             0.0202810   -0.001223192866
     63   P     266             0.0527300   -0.005391109298
     63   P     267             0.1370970   -0.261174328600
     63   P     268             0.3564510   -0.413054109456
     63   P     269             0.9267740   -0.315515804256
     63   P     270             2.4096120   -0.212812906956
     63   P     271             6.2649910   -0.007860146750

     64   S     272             0.0297400    1.000000000000

     65   P     273             0.1410000    1.000000000000

 C         

     66   S     274             0.0513440    0.013990987871
     66   S     275             0.1026190    0.169851852753
     66   S     276             0.2051000    0.397528655377
     66   S     277             0.4099240    0.380368670253
     66   S     278             0.8192970    0.180112843858
     66   S     279             1.6374940   -0.033511970948
     66   S     280             3.2727910   -0.121498894671
     66   S     281             6.5411870    0.015175986844
     66   S     282            13.0735940   -0.000704999389

     67   S     283             0.1278520    1.000000000000

     68   P     284             0.0292810    0.001787000047
     68   P     285             0.0585470    0.050426001336
     68   P     286             0.1170630    0.191634005079
     68   P     287             0.2340640    0.302667008021
     68   P     288             0.4680030    0.289868007682
     68   P     289             0.9357570    0.210979005591
     68   P     290             1.8710160    0.112024002969
     68   P     291             3.7410350    0.054425001442
     68   P     292             7.4800760    0.021931000581

     69   P     293             0.1491610    1.000000000000

     70   D     294             0.5611600    1.000000000000

     71   S     295             0.0469000    1.000000000000

     72   P     296             0.0404100    1.000000000000

     73   D     297             0.1510000    1.000000000000

 C         

     74   S     298             0.0513440    0.013990987871
     74   S     299             0.1026190    0.169851852753
     74   S     300             0.2051000    0.397528655377
     74   S     301             0.4099240    0.380368670253
     74   S     302             0.8192970    0.180112843858
     74   S     303             1.6374940   -0.033511970948
     74   S     304             3.2727910   -0.121498894671
     74   S     305             6.5411870    0.015175986844
     74   S     306            13.0735940   -0.000704999389

     75   S     307             0.1278520    1.000000000000

     76   P     308             0.0292810    0.001787000047
     76   P     309             0.0585470    0.050426001336
     76   P     310             0.1170630    0.191634005079
     76   P     311             0.2340640    0.302667008021
     76   P     312             0.4680030    0.289868007682
     76   P     313             0.9357570    0.210979005591
     76   P     314             1.8710160    0.112024002969
     76   P     315             3.7410350    0.054425001442
     76   P     316             7.4800760    0.021931000581

     77   P     317             0.1491610    1.000000000000

     78   D     318             0.5611600    1.000000000000

     79   S     319             0.0469000    1.000000000000

     80   P     320             0.0404100    1.000000000000

     81   D     321             0.1510000    1.000000000000

 C         

     82   S     322             0.0513440    0.013990987871
     82   S     323             0.1026190    0.169851852753
     82   S     324             0.2051000    0.397528655377
     82   S     325             0.4099240    0.380368670253
     82   S     326             0.8192970    0.180112843858
     82   S     327             1.6374940   -0.033511970948
     82   S     328             3.2727910   -0.121498894671
     82   S     329             6.5411870    0.015175986844
     82   S     330            13.0735940   -0.000704999389

     83   S     331             0.1278520    1.000000000000

     84   P     332             0.0292810    0.001787000047
     84   P     333             0.0585470    0.050426001336
     84   P     334             0.1170630    0.191634005079
     84   P     335             0.2340640    0.302667008021
     84   P     336             0.4680030    0.289868007682
     84   P     337             0.9357570    0.210979005591
     84   P     338             1.8710160    0.112024002969
     84   P     339             3.7410350    0.054425001442
     84   P     340             7.4800760    0.021931000581

     85   P     341             0.1491610    1.000000000000

     86   D     342             0.5611600    1.000000000000

     87   S     343             0.0469000    1.000000000000

     88   P     344             0.0404100    1.000000000000

     89   D     345             0.1510000    1.000000000000

 C         

     90   S     346             0.0513440    0.013990987871
     90   S     347             0.1026190    0.169851852753
     90   S     348             0.2051000    0.397528655377
     90   S     349             0.4099240    0.380368670253
     90   S     350             0.8192970    0.180112843858
     90   S     351             1.6374940   -0.033511970948
     90   S     352             3.2727910   -0.121498894671
     90   S     353             6.5411870    0.015175986844
     90   S     354            13.0735940   -0.000704999389

     91   S     355             0.1278520    1.000000000000

     92   P     356             0.0292810    0.001787000047
     92   P     357             0.0585470    0.050426001336
     92   P     358             0.1170630    0.191634005079
     92   P     359             0.2340640    0.302667008021
     92   P     360             0.4680030    0.289868007682
     92   P     361             0.9357570    0.210979005591
     92   P     362             1.8710160    0.112024002969
     92   P     363             3.7410350    0.054425001442
     92   P     364             7.4800760    0.021931000581

     93   P     365             0.1491610    1.000000000000

     94   D     366             0.5611600    1.000000000000

     95   S     367             0.0469000    1.000000000000

     96   P     368             0.0404100    1.000000000000

     97   D     369             0.1510000    1.000000000000

 C         

     98   S     370             0.0513440    0.013990987871
     98   S     371             0.1026190    0.169851852753
     98   S     372             0.2051000    0.397528655377
     98   S     373             0.4099240    0.380368670253
     98   S     374             0.8192970    0.180112843858
     98   S     375             1.6374940   -0.033511970948
     98   S     376             3.2727910   -0.121498894671
     98   S     377             6.5411870    0.015175986844
     98   S     378            13.0735940   -0.000704999389

     99   S     379             0.1278520    1.000000000000

    100   P     380             0.0292810    0.001787000047
    100   P     381             0.0585470    0.050426001336
    100   P     382             0.1170630    0.191634005079
    100   P     383             0.2340640    0.302667008021
    100   P     384             0.4680030    0.289868007682
    100   P     385             0.9357570    0.210979005591
    100   P     386             1.8710160    0.112024002969
    100   P     387             3.7410350    0.054425001442
    100   P     388             7.4800760    0.021931000581

    101   P     389             0.1491610    1.000000000000

    102   D     390             0.5611600    1.000000000000

    103   S     391             0.0469000    1.000000000000

    104   P     392             0.0404100    1.000000000000

    105   D     393             0.1510000    1.000000000000

 C         

    106   S     394             0.0513440    0.013990987871
    106   S     395             0.1026190    0.169851852753
    106   S     396             0.2051000    0.397528655377
    106   S     397             0.4099240    0.380368670253
    106   S     398             0.8192970    0.180112843858
    106   S     399             1.6374940   -0.033511970948
    106   S     400             3.2727910   -0.121498894671
    106   S     401             6.5411870    0.015175986844
    106   S     402            13.0735940   -0.000704999389

    107   S     403             0.1278520    1.000000000000

    108   P     404             0.0292810    0.001787000047
    108   P     405             0.0585470    0.050426001336
    108   P     406             0.1170630    0.191634005079
    108   P     407             0.2340640    0.302667008021
    108   P     408             0.4680030    0.289868007682
    108   P     409             0.9357570    0.210979005591
    108   P     410             1.8710160    0.112024002969
    108   P     411             3.7410350    0.054425001442
    108   P     412             7.4800760    0.021931000581

    109   P     413             0.1491610    1.000000000000

    110   D     414             0.5611600    1.000000000000

    111   S     415             0.0469000    1.000000000000

    112   P     416             0.0404100    1.000000000000

    113   D     417             0.1510000    1.000000000000

 C         

    114   S     418             0.0513440    0.013990987871
    114   S     419             0.1026190    0.169851852753
    114   S     420             0.2051000    0.397528655377
    114   S     421             0.4099240    0.380368670253
    114   S     422             0.8192970    0.180112843858
    114   S     423             1.6374940   -0.033511970948
    114   S     424             3.2727910   -0.121498894671
    114   S     425             6.5411870    0.015175986844
    114   S     426            13.0735940   -0.000704999389

    115   S     427             0.1278520    1.000000000000

    116   P     428             0.0292810    0.001787000047
    116   P     429             0.0585470    0.050426001336
    116   P     430             0.1170630    0.191634005079
    116   P     431             0.2340640    0.302667008021
    116   P     432             0.4680030    0.289868007682
    116   P     433             0.9357570    0.210979005591
    116   P     434             1.8710160    0.112024002969
    116   P     435             3.7410350    0.054425001442
    116   P     436             7.4800760    0.021931000581

    117   P     437             0.1491610    1.000000000000

    118   D     438             0.5611600    1.000000000000

    119   S     439             0.0469000    1.000000000000

    120   P     440             0.0404100    1.000000000000

    121   D     441             0.1510000    1.000000000000

 C         

    122   S     442             0.0513440    0.013990987871
    122   S     443             0.1026190    0.169851852753
    122   S     444             0.2051000    0.397528655377
    122   S     445             0.4099240    0.380368670253
    122   S     446             0.8192970    0.180112843858
    122   S     447             1.6374940   -0.033511970948
    122   S     448             3.2727910   -0.121498894671
    122   S     449             6.5411870    0.015175986844
    122   S     450            13.0735940   -0.000704999389

    123   S     451             0.1278520    1.000000000000

    124   P     452             0.0292810    0.001787000047
    124   P     453             0.0585470    0.050426001336
    124   P     454             0.1170630    0.191634005079
    124   P     455             0.2340640    0.302667008021
    124   P     456             0.4680030    0.289868007682
    124   P     457             0.9357570    0.210979005591
    124   P     458             1.8710160    0.112024002969
    124   P     459             3.7410350    0.054425001442
    124   P     460             7.4800760    0.021931000581

    125   P     461             0.1491610    1.000000000000

    126   D     462             0.5611600    1.000000000000

    127   S     463             0.0469000    1.000000000000

    128   P     464             0.0404100    1.000000000000

    129   D     465             0.1510000    1.000000000000

 C         

    130   S     466             0.0513440    0.013990987871
    130   S     467             0.1026190    0.169851852753
    130   S     468             0.2051000    0.397528655377
    130   S     469             0.4099240    0.380368670253
    130   S     470             0.8192970    0.180112843858
    130   S     471             1.6374940   -0.033511970948
    130   S     472             3.2727910   -0.121498894671
    130   S     473             6.5411870    0.015175986844
    130   S     474            13.0735940   -0.000704999389

    131   S     475             0.1278520    1.000000000000

    132   P     476             0.0292810    0.001787000047
    132   P     477             0.0585470    0.050426001336
    132   P     478             0.1170630    0.191634005079
    132   P     479             0.2340640    0.302667008021
    132   P     480             0.4680030    0.289868007682
    132   P     481             0.9357570    0.210979005591
    132   P     482             1.8710160    0.112024002969
    132   P     483             3.7410350    0.054425001442
    132   P     484             7.4800760    0.021931000581

    133   P     485             0.1491610    1.000000000000

    134   D     486             0.5611600    1.000000000000

    135   S     487             0.0469000    1.000000000000

    136   P     488             0.0404100    1.000000000000

    137   D     489             0.1510000    1.000000000000

 N         

    138   S     490             0.0988690    0.067266010234
    138   S     491             0.2114430    0.334290050859
    138   S     492             0.4521970    0.454257069111
    138   S     493             0.9670800    0.267861040752
    138   S     494             2.0682210    0.000248000038
    138   S     495             4.4231500   -0.132606020175
    138   S     496             9.4594620    0.014437002196
    138   S     497            20.2302460    0.000359000055
    138   S     498            43.2649190   -0.000094000014

    139   S     499             0.1751230    1.000000000000

    140   P     500             0.0732340    0.035757988749
    140   P     501             0.1458670    0.153944951562
    140   P     502             0.2905350    0.277655912638
    140   P     503             0.5786830    0.297675906338
    140   P     504             1.1526120    0.234402926247
    140   P     505             2.2957560    0.140320955849
    140   P     506             4.5726520    0.067218978850
    140   P     507             9.1077390    0.031593990059
    140   P     508            18.1406570    0.003300998961

    141   P     509             0.2230420    1.000000000000

    142   D     510             0.8320580    1.000000000000

    143   S     511             0.0612400    1.000000000000

    144   P     512             0.0561100    1.000000000000

    145   D     513             0.2300000    1.000000000000

 N         

    146   S     514             0.0988690    0.067266010234
    146   S     515             0.2114430    0.334290050859
    146   S     516             0.4521970    0.454257069111
    146   S     517             0.9670800    0.267861040752
    146   S     518             2.0682210    0.000248000038
    146   S     519             4.4231500   -0.132606020175
    146   S     520             9.4594620    0.014437002196
    146   S     521            20.2302460    0.000359000055
    146   S     522            43.2649190   -0.000094000014

    147   S     523             0.1751230    1.000000000000

    148   P     524             0.0732340    0.035757988749
    148   P     525             0.1458670    0.153944951562
    148   P     526             0.2905350    0.277655912638
    148   P     527             0.5786830    0.297675906338
    148   P     528             1.1526120    0.234402926247
    148   P     529             2.2957560    0.140320955849
    148   P     530             4.5726520    0.067218978850
    148   P     531             9.1077390    0.031593990059
    148   P     532            18.1406570    0.003300998961

    149   P     533             0.2230420    1.000000000000

    150   D     534             0.8320580    1.000000000000

    151   S     535             0.0612400    1.000000000000

    152   P     536             0.0561100    1.000000000000

    153   D     537             0.2300000    1.000000000000

 TOTAL NUMBER OF BASIS SET SHELLS             =  153
 NUMBER OF CARTESIAN GAUSSIAN BASIS FUNCTIONS =  381
 NOTE: THIS RUN WILL RESTRICT THE MO VARIATION SPACE TO SPHERICAL HARMONICS.
 THE NUMBER OF ORBITALS KEPT IN THE VARIATIONAL SPACE WILL BE PRINTED LATER.
 NUMBER OF ELECTRONS                          =   80
 CHARGE OF MOLECULE                           =    1
 SPIN MULTIPLICITY                            =    1
 NUMBER OF OCCUPIED ORBITALS (ALPHA)          =   40
 NUMBER OF OCCUPIED ORBITALS (BETA )          =   40
 TOTAL NUMBER OF ATOMS                        =   24
 THE NUCLEAR REPULSION ENERGY IS      498.5415513784
 NOTE THIS RUN IS USING CORE POTENTIALS, AND THE NUMBER OF ELECTRONS,
 OCCUPIED ORBITALS, AND NUCLEAR REPULSION ENERGY WILL BE ADJUSTED BELOW
 AFTER REMOVAL OF THE CORE CHARGES.

     $CONTRL OPTIONS
     ---------------
 SCFTYP=MCSCF        RUNTYP=ENERGY       EXETYP=RUN     
 MPLEVL=       0     CITYP =NONE         CCTYP =NONE         VBTYP =NONE    
 MULT  =       1     ICHARG=       1     NZVAR =       0     COORD =UNIQUE  
 PP    =READ         RELWFN=NONE         LOCAL =NONE         NUMGRD=       F
 ISPHER=       1     NOSYM =       0     MAXIT =     100     UNITS =ANGS    
 PLTORB=       F     MOLPLT=       F     AIMPAC=       F     FRIEND=        
 NPRINT=       7     IREST =       0     GEOM  =INPUT   
 NORMF =       0     NORMP =       0     ITOL  =      20     ICUT  =       9
 INTTYP=BEST         GRDTYP=BEST         QMTTOL= 1.0E-06

     $SYSTEM OPTIONS
     ---------------
  REPLICATED MEMORY=  2000000000 WORDS (ON EVERY NODE).
 DISTRIBUTED MEMDDI=           0 MILLION WORDS IN AGGREGATE,
 MEMDDI DISTRIBUTED OVER   1 PROCESSORS IS           0 WORDS/PROCESSOR.
 TOTAL MEMORY REQUESTED ON EACH PROCESSOR=  2000000000 WORDS.
 TIMLIM=      525600.00 MINUTES, OR   365.00 DAYS.
 PARALL= F  BALTYP=  NXTVAL  KDIAG=    0  COREFL= F

          --------------
          ECP POTENTIALS
          --------------

 PARAMETERS FOR "H       " ON ATOM    1 WITH ZCORE   0 AND LMAX  0 ARE
 FOR L= 0      COEFF    N           ZETA
    1        1.00000    1        4.47692
    2        4.47692    3        2.97636
    3       -4.32112    2        3.01842

 PARAMETERS FOR "H       " ON ATOM    2 ARE THE SAME AS ATOM   1

 PARAMETERS FOR "H       " ON ATOM    3 ARE THE SAME AS ATOM   1

 PARAMETERS FOR "H       " ON ATOM    4 ARE THE SAME AS ATOM   1

 PARAMETERS FOR "H       " ON ATOM    5 ARE THE SAME AS ATOM   1

 PARAMETERS FOR "H       " ON ATOM    6 ARE THE SAME AS ATOM   1

 PARAMETERS FOR "H       " ON ATOM    7 ARE THE SAME AS ATOM   1

 PARAMETERS FOR "H       " ON ATOM    8 ARE THE SAME AS ATOM   1

 PARAMETERS FOR "H       " ON ATOM    9 ARE THE SAME AS ATOM   1

 PARAMETERS FOR "H       " ON ATOM   10 ARE THE SAME AS ATOM   1

 PARAMETERS FOR "H       " ON ATOM   11 ARE THE SAME AS ATOM   1

 PARAMETERS FOR "H       " ON ATOM   12 ARE THE SAME AS ATOM   1

 PARAMETERS FOR "H       " ON ATOM   13 ARE THE SAME AS ATOM   1

 PARAMETERS FOR "C       " ON ATOM   14 WITH ZCORE   2 AND LMAX  1 ARE
 FOR L= 1      COEFF    N           ZETA
    1        4.00000    1        8.35974
    2       33.43895    3        4.48362
    3      -19.17537    2        3.93831
 FOR L= 0      COEFF    N           ZETA
    1       22.55164    2        5.02992

 PARAMETERS FOR "C       " ON ATOM   15 ARE THE SAME AS ATOM  14

 PARAMETERS FOR "C       " ON ATOM   16 ARE THE SAME AS ATOM  14

 PARAMETERS FOR "C       " ON ATOM   17 ARE THE SAME AS ATOM  14

 PARAMETERS FOR "C       " ON ATOM   18 ARE THE SAME AS ATOM  14

 PARAMETERS FOR "C       " ON ATOM   19 ARE THE SAME AS ATOM  14

 PARAMETERS FOR "C       " ON ATOM   20 ARE THE SAME AS ATOM  14

 PARAMETERS FOR "C       " ON ATOM   21 ARE THE SAME AS ATOM  14

 PARAMETERS FOR "C       " ON ATOM   22 ARE THE SAME AS ATOM  14

 PARAMETERS FOR "N       " ON ATOM   23 WITH ZCORE   2 AND LMAX  1 ARE
 FOR L= 1      COEFF    N           ZETA
    1        5.00000    1        9.23501
    2       46.17505    3        7.66830
    3      -30.18894    2        7.34486
 FOR L= 0      COEFF    N           ZETA
    1       31.69720    2        6.99537

 PARAMETERS FOR "N       " ON ATOM   24 ARE THE SAME AS ATOM  23

 THE ECP RUN REMOVES   22 CORE ELECTRONS, AND THE SAME NUMBER OF PROTONS.
 NUMBER OF ELECTRONS KEPT IN THE CALCULATION IS =   58
 NUMBER OF OCCUPIED ORBITALS (ALPHA) KEPT IS    =   29
 NUMBER OF OCCUPIED ORBITALS (BETA ) KEPT IS    =   29
 THE ADJUSTED NUCLEAR REPULSION ENERGY=      263.6021638909
          ECP ANGULAR INTS.........     0.00 SECONDS

          ----------------
          PROPERTIES INPUT
          ----------------

     MOMENTS            FIELD           POTENTIAL          DENSITY
 IEMOM =       1   IEFLD =       0   IEPOT =       0   IEDEN =       0
 WHERE =COMASS     WHERE =NUCLEI     WHERE =NUCLEI     WHERE =NUCLEI  
 OUTPUT=BOTH       OUTPUT=BOTH       OUTPUT=BOTH       OUTPUT=BOTH    
 IEMINT=       0   IEFINT=       0                     IEDINT=       0
                                                       MORB  =       0

     -------------------------------
     INTEGRAL TRANSFORMATION OPTIONS
     -------------------------------
     NWORD  =       0     CUTOFF = 1.0E-09
     MPTRAN =       0     DIRTRF =       F
     AOINTS =DUP     

          ----------------------
          MCSCF INPUT PARAMETERS
          ----------------------
 CONVERGER SELECTION: FOCAS = F  SOSCF = T  FULLNR = F  QUD = F  JACOBI = F
 SECULAR EQUATION METHOD CISTEP = GUGA    
 --- GENERAL INPUT OPTIONS:
 MAXIT =    1000  MICIT =       5  ACURCY= 1.000E-05
 DAMP  =   0.000  CANONC=       T  ENGTOL= 1.000E-10
 EKT   =       F  NPUNCH=       2  NWORD =         0
 --- INPUT FOR SOSCF CONVERGER:
 FORS  =       T  NOFO  =       1

          ----------------------
          INTEGRAL INPUT OPTIONS
          ----------------------
 NOPK  =       1 NORDER=       0 SCHWRZ=       T

     ------------------------------------------
     THE POINT GROUP IS C1 , NAXIS= 0, ORDER= 1
     ------------------------------------------

 -- VARIATIONAL SPACE WILL BE RESTRICTED TO PURE SPHERICAL HARMONICS ONLY --
 AFTER EXCLUDING CONTAMINANT COMBINATIONS FROM THE CARTESIAN GAUSSIAN BASIS
 SET, THE NUMBER OF SPHERICAL HARMONICS KEPT IN THE VARIATION SPACE IS  359

     DIMENSIONS OF THE SYMMETRY SUBSPACES ARE
 A   =  359

 ..... DONE SETTING UP THE RUN .....
 STEP CPU TIME =     0.16 TOTAL CPU TIME =        0.2 (    0.0 MIN)
 TOTAL WALL CLOCK TIME=        0.0 SECONDS, CPU UTILIZATION IS 100.00%

          ********************
          1 ELECTRON INTEGRALS
          ********************
 TIME TO DO ORDINARY INTEGRALS=      0.30
 TIME TO DO      ECP INTEGRALS=      2.68
 TIME TO DO   DIPOLE INTEGRALS=      0.02
 ...... END OF ONE-ELECTRON INTEGRALS ......
 STEP CPU TIME =     3.00 TOTAL CPU TIME =        3.2 (    0.1 MIN)
 TOTAL WALL CLOCK TIME=        4.0 SECONDS, CPU UTILIZATION IS  79.00%

          -------------
          GUESS OPTIONS
          -------------
          GUESS =MOREAD            NORB  =     359          NORDER=       0
          MIX   =       F          PRTMO =       F          PUNMO =       F
          TOLZ  = 1.0E-08          TOLE  = 1.0E-05
          SYMDEN=       F          PURIFY=       F

 INITIAL GUESS ORBITALS GENERATED BY MOREAD   ROUTINE.

 STATISTICS FOR GENERATION OF SYMMETRY ORBITAL -Q- MATRIX
 NUMBER OF CARTESIAN ATOMIC ORBITALS=        381
 NUMBER OF SPHERICAL CONTAMINANTS DROPPED=    22
 NUMBER OF LINEARLY DEPENDENT MOS DROPPED=     0
 TOTAL NUMBER OF MOS IN VARIATION SPACE=     359

                    * * * * * WARNING * * * * *
 POSSIBLE LINEAR DEPENDENCE PROBLEMS DETECTED, INPUT QMTTOL= 1.0E-06,
 WITH    10 OVERLAP EIGENVALUES LYING BETWEEN 1.0E-05 AND QMTTOL.
 IF YOU EXPERIENCE SCF CONVERGENCE DIFFICULTIES WITH THE DENSITY ALMOST BUT
 NOT QUITE CONVERGED, YOU MAY NEED TO LOOSEN -QMTTOL- BY A FACTOR 5 TO 10.

 SYMMETRIES FOR INITIAL GUESS ORBITALS FOLLOW.   BOTH SET(S).
    30 ORBITALS ARE OCCUPIED (    0 CORE ORBITALS).
     1=A        2=A        3=A        4=A        5=A        6=A        7=A   
     8=A        9=A       10=A       11=A       12=A       13=A       14=A   
    15=A       16=A       17=A       18=A       19=A       20=A       21=A   
    22=A       23=A       24=A       25=A       26=A       27=A       28=A   
    29=A       30=A       31=A       32=A       33=A       34=A       35=A   
    36=A       37=A       38=A       39=A       40=A       41=A       42=A   
    43=A       44=A       45=A       46=A       47=A       48=A       49=A   
    50=A       51=A       52=A       53=A       54=A       55=A       56=A   
    57=A       58=A       59=A       60=A       61=A       62=A       63=A   
    64=A       65=A       66=A       67=A       68=A       69=A       70=A   
    71=A       72=A       73=A       74=A       75=A       76=A       77=A   
    78=A       79=A       80=A       81=A       82=A       83=A       84=A   
    85=A       86=A       87=A       88=A       89=A       90=A       91=A   
    92=A       93=A       94=A       95=A       96=A       97=A       98=A   
    99=A      100=A      101=A      102=A      103=A      104=A      105=A   
   106=A      107=A      108=A      109=A      110=A      111=A      112=A   
   113=A      114=A      115=A      116=A      117=A      118=A      119=A   
   120=A      121=A      122=A      123=A      124=A      125=A      126=A   
   127=A      128=A      129=A      130=A      131=A      132=A      133=A   
   134=A      135=A      136=A      137=A      138=A      139=A      140=A   
   141=A      142=A      143=A      144=A      145=A      146=A      147=A   
   148=A      149=A      150=A      151=A      152=A      153=A      154=A   
   155=A      156=A      157=A      158=A      159=A      160=A      161=A   
   162=A      163=A      164=A      165=A      166=A      167=A      168=A   
   169=A      170=A      171=A      172=A      173=A      174=A      175=A   
   176=A      177=A      178=A      179=A      180=A      181=A      182=A   
   183=A      184=A      185=A      186=A      187=A      188=A      189=A   
   190=A      191=A      192=A      193=A      194=A      195=A      196=A   
   197=A      198=A      199=A      200=A      201=A      202=A      203=A   
   204=A      205=A      206=A      207=A      208=A      209=A      210=A   
   211=A      212=A      213=A      214=A      215=A      216=A      217=A   
   218=A      219=A      220=A      221=A      222=A      223=A      224=A   
   225=A      226=A      227=A      228=A      229=A      230=A      231=A   
   232=A      233=A      234=A      235=A      236=A      237=A      238=A   
   239=A      240=A      241=A      242=A      243=A      244=A      245=A   
   246=A      247=A      248=A      249=A      250=A      251=A      252=A   
   253=A      254=A      255=A      256=A      257=A      258=A      259=A   
   260=A      261=A      262=A      263=A      264=A      265=A      266=A   
   267=A      268=A      269=A      270=A      271=A      272=A      273=A   
   274=A      275=A      276=A      277=A      278=A      279=A      280=A   
   281=A      282=A      283=A      284=A      285=A      286=A      287=A   
   288=A      289=A      290=A      291=A      292=A      293=A      294=A   
   295=A      296=A      297=A      298=A      299=A      300=A      301=A   
   302=A      303=A      304=A      305=A      306=A      307=A      308=A   
   309=A      310=A      311=A      312=A      313=A      314=A      315=A   
   316=A      317=A      318=A      319=A      320=A      321=A      322=A   
   323=A      324=A      325=A      326=A      327=A      328=A      329=A   
   330=A      331=A      332=A      333=A      334=A      335=A      336=A   
   337=A      338=A      339=A      340=A      341=A      342=A      343=A   
   344=A      345=A      346=A      347=A      348=A      349=A      350=A   
   351=A      352=A      353=A      354=A      355=A      356=A      357=A   
   358=A      359=A   
 ...... END OF INITIAL ORBITAL SELECTION ......
 STEP CPU TIME =     0.28 TOTAL CPU TIME =        3.4 (    0.1 MIN)
 TOTAL WALL CLOCK TIME=        4.0 SECONDS, CPU UTILIZATION IS  86.00%

                    ----------------------
                    AO INTEGRAL TECHNOLOGY
                    ----------------------
     S,P,L SHELL ROTATED AXIS INTEGRALS, REPROGRAMMED BY
        KAZUYA ISHIMURA (IMS) AND JOSE SIERRA (SYNSTAR).
     S,P,D,L SHELL ROTATED AXIS INTEGRALS PROGRAMMED BY
        KAZUYA ISHIMURA (INSTITUTE FOR MOLECULAR SCIENCE).
     S,P,D,F,G SHELL TO TOTAL QUARTET ANGULAR MOMENTUM SUM 5,
        ERIC PROGRAM BY GRAHAM FLETCHER (ELORET AND NASA ADVANCED
        SUPERCOMPUTING DIVISION, AMES RESEARCH CENTER).
     S,P,D,F,G,L SHELL GENERAL RYS QUADRATURE PROGRAMMED BY
        MICHEL DUPUIS (PACIFIC NORTHWEST NATIONAL LABORATORY).

          --------------------
          2 ELECTRON INTEGRALS
          --------------------

 THE -PK- OPTION IS OFF, THE INTEGRALS ARE NOT IN SUPERMATRIX FORM.
 STORING   15000 INTEGRALS/RECORD ON DISK, USING 16 BYTES/INTEGRAL.
 TWO ELECTRON INTEGRAL EVALUATION REQUIRES  102177 WORDS OF MEMORY.
 SCHWARZ INEQUALITY OVERHEAD:     70225 INTEGRALS, T=        0.32
 II,JST,KST,LST =  1  1  1  1 NREC =         1 INTLOC =    1
 II,JST,KST,LST =  2  1  1  1 NREC =         1 INTLOC =    2
 II,JST,KST,LST =  3  1  1  1 NREC =         1 INTLOC =    7
 II,JST,KST,LST =  4  1  1  1 NREC =         1 INTLOC =   34
 II,JST,KST,LST =  5  1  1  1 NREC =         1 INTLOC =   67
 II,JST,KST,LST =  6  1  1  1 NREC =         1 INTLOC =  214
 II,JST,KST,LST =  7  1  1  1 NREC =         1 INTLOC =  529
 II,JST,KST,LST =  8  1  1  1 NREC =         1 INTLOC =  960
 II,JST,KST,LST =  9  1  1  1 NREC =         1 INTLOC = 2759
 II,JST,KST,LST = 10  1  1  1 NREC =         1 INTLOC = 3764
 II,JST,KST,LST = 11  1  1  1 NREC =         1 INTLOC = 7491
 II,JST,KST,LST = 12  1  1  1 NREC =         1 INTLOC = 9438
 II,JST,KST,LST = 13  1  1  1 NREC =         1 INTLOC =11734
 II,JST,KST,LST = 14  1  1  1 NREC =         2 INTLOC = 4519
 II,JST,KST,LST = 15  1  1  1 NREC =         2 INTLOC = 8267
 II,JST,KST,LST = 16  1  1  1 NREC =         3 INTLOC = 5470
 II,JST,KST,LST = 17  1  1  1 NREC =         3 INTLOC =12044
 II,JST,KST,LST = 18  1  1  1 NREC =         4 INTLOC = 4435
 II,JST,KST,LST = 19  1  1  1 NREC =         5 INTLOC =13429
 II,JST,KST,LST = 20  1  1  1 NREC =         6 INTLOC = 9169
 II,JST,KST,LST = 21  1  1  1 NREC =         8 INTLOC =13306
 II,JST,KST,LST = 22  1  1  1 NREC =         9 INTLOC =13255
 II,JST,KST,LST = 23  1  1  1 NREC =        10 INTLOC =14572
 II,JST,KST,LST = 24  1  1  1 NREC =        14 INTLOC = 5077
 II,JST,KST,LST = 25  1  1  1 NREC =        15 INTLOC =11743
 II,JST,KST,LST = 26  1  1  1 NREC =        20 INTLOC = 2947
 II,JST,KST,LST = 27  1  1  1 NREC =        22 INTLOC = 1808
 II,JST,KST,LST = 28  1  1  1 NREC =        24 INTLOC = 2628
 II,JST,KST,LST = 29  1  1  1 NREC =        30 INTLOC = 6561
 II,JST,KST,LST = 30  1  1  1 NREC =        33 INTLOC =  960
 II,JST,KST,LST = 31  1  1  1 NREC =        40 INTLOC =13953
 II,JST,KST,LST = 32  1  1  1 NREC =        44 INTLOC = 2270
 II,JST,KST,LST = 33  1  1  1 NREC =        47 INTLOC = 5449
 II,JST,KST,LST = 34  1  1  1 NREC =        57 INTLOC = 6274
 II,JST,KST,LST = 35  1  1  1 NREC =        61 INTLOC = 9750
 II,JST,KST,LST = 36  1  1  1 NREC =        73 INTLOC = 7606
 II,JST,KST,LST = 37  1  1  1 NREC =        78 INTLOC = 6673
 II,JST,KST,LST = 38  1  1  1 NREC =        83 INTLOC = 2881
 II,JST,KST,LST = 39  1  1  1 NREC =        98 INTLOC = 7781
 II,JST,KST,LST = 40  1  1  1 NREC =       104 INTLOC =13998
 II,JST,KST,LST = 41  1  1  1 NREC =       121 INTLOC =12836
 II,JST,KST,LST = 42  1  1  1 NREC =       128 INTLOC =13251
 II,JST,KST,LST = 43  1  1  1 NREC =       135 INTLOC = 5026
 II,JST,KST,LST = 44  1  1  1 NREC =       156 INTLOC =13550
 II,JST,KST,LST = 45  1  1  1 NREC =       165 INTLOC =14860
 II,JST,KST,LST = 46  1  1  1 NREC =       188 INTLOC = 2866
 II,JST,KST,LST = 47  1  1  1 NREC =       197 INTLOC = 9300
 II,JST,KST,LST = 48  1  1  1 NREC =       205 INTLOC =13964
 II,JST,KST,LST = 49  1  1  1 NREC =       235 INTLOC = 4468
 II,JST,KST,LST = 50  1  1  1 NREC =       247 INTLOC = 8148
 II,JST,KST,LST = 51  1  1  1 NREC =       275 INTLOC = 6242
 II,JST,KST,LST = 52  1  1  1 NREC =       287 INTLOC = 5937
 II,JST,KST,LST = 53  1  1  1 NREC =       297 INTLOC =11661
 II,JST,KST,LST = 54  1  1  1 NREC =       335 INTLOC =13867
 II,JST,KST,LST = 55  1  1  1 NREC =       351 INTLOC = 8216
 II,JST,KST,LST = 56  1  1  1 NREC =       385 INTLOC = 9266
 II,JST,KST,LST = 57  1  1  1 NREC =       401 INTLOC = 1462
 II,JST,KST,LST = 58  1  1  1 NREC =       414 INTLOC = 9586
 II,JST,KST,LST = 59  1  1  1 NREC =       464 INTLOC = 5134
 II,JST,KST,LST = 60  1  1  1 NREC =       484 INTLOC = 4378
 II,JST,KST,LST = 61  1  1  1 NREC =       527 INTLOC =14469
 II,JST,KST,LST = 62  1  1  1 NREC =       546 INTLOC =10989
 II,JST,KST,LST = 63  1  1  1 NREC =       562 INTLOC =13973
 II,JST,KST,LST = 64  1  1  1 NREC =       624 INTLOC =10512
 II,JST,KST,LST = 65  1  1  1 NREC =       648 INTLOC =13223
 II,JST,KST,LST = 66  1  1  1 NREC =       700 INTLOC = 7047
 II,JST,KST,LST = 67  1  1  1 NREC =       728 INTLOC =12509
 II,JST,KST,LST = 68  1  1  1 NREC =       758 INTLOC = 1826
 II,JST,KST,LST = 69  1  1  1 NREC =       840 INTLOC =11234
 II,JST,KST,LST = 70  1  1  1 NREC =       928 INTLOC = 5285
 II,JST,KST,LST = 71  1  1  1 NREC =      1100 INTLOC = 8670
 II,JST,KST,LST = 72  1  1  1 NREC =      1142 INTLOC = 2681
 II,JST,KST,LST = 73  1  1  1 NREC =      1260 INTLOC =   34
 II,JST,KST,LST = 74  1  1  1 NREC =      1506 INTLOC = 1105
 II,JST,KST,LST = 75  1  1  1 NREC =      1555 INTLOC = 9350
 II,JST,KST,LST = 76  1  1  1 NREC =      1606 INTLOC = 2899
 II,JST,KST,LST = 77  1  1  1 NREC =      1750 INTLOC = 6077
 II,JST,KST,LST = 78  1  1  1 NREC =      1900 INTLOC =14803
 II,JST,KST,LST = 79  1  1  1 NREC =      2205 INTLOC =  535
 II,JST,KST,LST = 80  1  1  1 NREC =      2273 INTLOC = 6794
 II,JST,KST,LST = 81  1  1  1 NREC =      2467 INTLOC =12779
 II,JST,KST,LST = 82  1  1  1 NREC =      2869 INTLOC =10757
 II,JST,KST,LST = 83  1  1  1 NREC =      2949 INTLOC = 2670
 II,JST,KST,LST = 84  1  1  1 NREC =      3030 INTLOC =  779
 II,JST,KST,LST = 85  1  1  1 NREC =      3260 INTLOC = 9524
 II,JST,KST,LST = 86  1  1  1 NREC =      3500 INTLOC =  375
 II,JST,KST,LST = 87  1  1  1 NREC =      3981 INTLOC =11356
 II,JST,KST,LST = 88  1  1  1 NREC =      4086 INTLOC = 3136
 II,JST,KST,LST = 89  1  1  1 NREC =      4383 INTLOC =  902
 II,JST,KST,LST = 90  1  1  1 NREC =      4994 INTLOC =13326
 II,JST,KST,LST = 91  1  1  1 NREC =      5112 INTLOC = 7167
 II,JST,KST,LST = 92  1  1  1 NREC =      5231 INTLOC = 1215
 II,JST,KST,LST = 93  1  1  1 NREC =      5573 INTLOC = 3198
 II,JST,KST,LST = 94  1  1  1 NREC =      5923 INTLOC = 9386
 II,JST,KST,LST = 95  1  1  1 NREC =      6625 INTLOC =11470
 II,JST,KST,LST = 96  1  1  1 NREC =      6776 INTLOC =10976
 II,JST,KST,LST = 97  1  1  1 NREC =      7207 INTLOC = 4734
 II,JST,KST,LST = 98  1  1  1 NREC =      8079 INTLOC =  808
 II,JST,KST,LST = 99  1  1  1 NREC =      8246 INTLOC = 2454
 II,JST,KST,LST =100  1  1  1 NREC =      8414 INTLOC = 6267
 II,JST,KST,LST =101  1  1  1 NREC =      8899 INTLOC = 6321
 II,JST,KST,LST =102  1  1  1 NREC =      9393 INTLOC = 3221
 II,JST,KST,LST =103  1  1  1 NREC =     10347 INTLOC = 7350
 II,JST,KST,LST =104  1  1  1 NREC =     10556 INTLOC = 9989
 II,JST,KST,LST =105  1  1  1 NREC =     11153 INTLOC = 2583
 II,JST,KST,LST =106  1  1  1 NREC =     12350 INTLOC =14287
 II,JST,KST,LST =107  1  1  1 NREC =     12572 INTLOC =11228
 II,JST,KST,LST =108  1  1  1 NREC =     12795 INTLOC = 4500
 II,JST,KST,LST =109  1  1  1 NREC =     13442 INTLOC =  158
 II,JST,KST,LST =110  1  1  1 NREC =     14088 INTLOC = 5178
 II,JST,KST,LST =111  1  1  1 NREC =     15290 INTLOC = 7560
 II,JST,KST,LST =112  1  1  1 NREC =     15567 INTLOC = 5108
 II,JST,KST,LST =113  1  1  1 NREC =     16358 INTLOC =11645
 II,JST,KST,LST =114  1  1  1 NREC =     17899 INTLOC =13461
 II,JST,KST,LST =115  1  1  1 NREC =     18186 INTLOC =11683
 II,JST,KST,LST =116  1  1  1 NREC =     18469 INTLOC =10852
 II,JST,KST,LST =117  1  1  1 NREC =     19305 INTLOC = 8670
 II,JST,KST,LST =118  1  1  1 NREC =     20118 INTLOC = 8571
 II,JST,KST,LST =119  1  1  1 NREC =     21577 INTLOC = 6754
 II,JST,KST,LST =120  1  1  1 NREC =     21934 INTLOC =11522
 II,JST,KST,LST =121  1  1  1 NREC =     22955 INTLOC = 9242
 II,JST,KST,LST =122  1  1  1 NREC =     24866 INTLOC = 3429
 II,JST,KST,LST =123  1  1  1 NREC =     25216 INTLOC = 3823
 II,JST,KST,LST =124  1  1  1 NREC =     25554 INTLOC = 9454
 II,JST,KST,LST =125  1  1  1 NREC =     26582 INTLOC =14061
 II,JST,KST,LST =126  1  1  1 NREC =     27546 INTLOC =10664
 II,JST,KST,LST =127  1  1  1 NREC =     29235 INTLOC = 7373
 II,JST,KST,LST =128  1  1  1 NREC =     29675 INTLOC =10161
 II,JST,KST,LST =129  1  1  1 NREC =     30941 INTLOC =13455
 II,JST,KST,LST =130  1  1  1 NREC =     33185 INTLOC = 2241
 II,JST,KST,LST =131  1  1  1 NREC =     33598 INTLOC =14424
 II,JST,KST,LST =132  1  1  1 NREC =     33994 INTLOC =14890
 II,JST,KST,LST =133  1  1  1 NREC =     35221 INTLOC =13763
 II,JST,KST,LST =134  1  1  1 NREC =     36342 INTLOC = 8165
 II,JST,KST,LST =135  1  1  1 NREC =     38279 INTLOC = 1899
 II,JST,KST,LST =136  1  1  1 NREC =     38810 INTLOC = 2017
 II,JST,KST,LST =137  1  1  1 NREC =     40339 INTLOC = 7428
 II,JST,KST,LST =138  1  1  1 NREC =     42925 INTLOC =  214
 II,JST,KST,LST =139  1  1  1 NREC =     43341 INTLOC =10405
 II,JST,KST,LST =140  1  1  1 NREC =     43755 INTLOC =11420
 II,JST,KST,LST =141  1  1  1 NREC =     44977 INTLOC = 6000
 II,JST,KST,LST =142  1  1  1 NREC =     46112 INTLOC =12020
 II,JST,KST,LST =143  1  1  1 NREC =     48080 INTLOC =11258
 II,JST,KST,LST =144  1  1  1 NREC =     48650 INTLOC = 7523
 II,JST,KST,LST =145  1  1  1 NREC =     50288 INTLOC =13178
 II,JST,KST,LST =146  1  1  1 NREC =     52896 INTLOC = 8796
 II,JST,KST,LST =147  1  1  1 NREC =     53354 INTLOC =14294
 II,JST,KST,LST =148  1  1  1 NREC =     53810 INTLOC =14460
 II,JST,KST,LST =149  1  1  1 NREC =     55149 INTLOC =11144
 II,JST,KST,LST =150  1  1  1 NREC =     56393 INTLOC =10740
 II,JST,KST,LST =151  1  1  1 NREC =     58541 INTLOC = 6375
 II,JST,KST,LST =152  1  1  1 NREC =     59170 INTLOC = 4442
 II,JST,KST,LST =153  1  1  1 NREC =     60976 INTLOC = 6131
 SCHWARZ INEQUALITY TEST SKIPPED   9796442 INTEGRAL BLOCKS.
 TOTAL NUMBER OF NONZERO TWO-ELECTRON INTEGRALS =           957254122
      63817 INTEGRAL RECORDS WERE STORED ON DISK FILE  8.
  ...... END OF TWO-ELECTRON INTEGRALS .....
 STEP CPU TIME =   357.02 TOTAL CPU TIME =      360.5 (    6.0 MIN)
 TOTAL WALL CLOCK TIME=      380.0 SECONDS, CPU UTILIZATION IS  94.86%

          -----------------
[...]
            190  C 17  S      1.54827     0.32349
            191  C 17  S     -0.90152     0.11069
            192  C 17  X      0.82451     0.49560
            193  C 17  Y      1.19011     0.75327
            194  C 17  Z      1.21936     0.78867
            195  C 17  X     -0.02480     0.15547
            196  C 17  Y     -0.11573     0.16297
            197  C 17  Z      0.02164     0.19376
            198  C 17 XX      0.02749     0.04632
            199  C 17 YY      0.01457     0.17301
            200  C 17 ZZ      0.02332     0.14769
            201  C 17 XY      0.00376     0.03922
            202  C 17 XZ      0.02543     0.00622
            203  C 17 YZ      0.00000     0.05434
            204  C 17  S     -0.34805     0.03781
            205  C 17  X     -0.01710     0.01794
            206  C 17  Y      0.38677     0.04019
            207  C 17  Z     -0.05261     0.02281
            208  C 17 XX      0.01562     0.00068
            209  C 17 YY     -0.00547     0.11185
            210  C 17 ZZ      0.05348     0.09489
            211  C 17 XY     -0.00170     0.13229
            212  C 17 XZ      0.15122     0.01420
            213  C 17 YZ      0.00000     0.11999
            214  C 18  S      1.54827     0.32349
            215  C 18  S     -0.90152     0.11069
            216  C 18  X      0.82451     0.49560
            217  C 18  Y      1.19011     0.75327
            218  C 18  Z      1.21936     0.78867
            219  C 18  X     -0.02480     0.15547
            220  C 18  Y     -0.11572     0.16297
            221  C 18  Z      0.02164     0.19376
            222  C 18 XX      0.02749     0.04632
            223  C 18 YY      0.01457     0.17301
            224  C 18 ZZ      0.02332     0.14769
            225  C 18 XY      0.00376     0.03922
            226  C 18 XZ      0.02543     0.00622
            227  C 18 YZ      0.00000     0.05434
            228  C 18  S     -0.34805     0.03781
            229  C 18  X     -0.01710     0.01794
            230  C 18  Y      0.38677     0.04019
            231  C 18  Z     -0.05261     0.02281
            232  C 18 XX      0.01562     0.00068
            233  C 18 YY     -0.00547     0.11185
            234  C 18 ZZ      0.05348     0.09489
            235  C 18 XY     -0.00170     0.13229
            236  C 18 XZ      0.15122     0.01420
            237  C 18 YZ      0.00000     0.11999
            238  C 19  S      1.50114     0.31340
            239  C 19  S     -1.07180     0.11164
            240  C 19  X      1.09279     0.67277
            241  C 19  Y      1.13332     0.72394
            242  C 19  Z      1.18413     0.77061
            243  C 19  X     -0.02002     0.18819
            244  C 19  Y     -0.07578     0.16229
            245  C 19  Z     -0.23185     0.19716
            246  C 19 XX      0.02376     0.04515
            247  C 19 YY      0.01231     0.16688
            248  C 19 ZZ      0.01006     0.14706
            249  C 19 XY      0.00544     0.01776
            250  C 19 XZ      0.02831     0.00755
            251  C 19 YZ      0.00000     0.06304
            252  C 19  S     -0.55220     0.03794
            253  C 19  X     -0.00206     0.01818
            254  C 19  Y      0.30433     0.03530
            255  C 19  Z     -0.01063     0.02317
            256  C 19 XX      0.03452     0.00038
            257  C 19 YY      0.00347     0.09491
            258  C 19 ZZ      0.02546     0.09709
            259  C 19 XY     -0.00191     0.06998
            260  C 19 XZ      0.06844     0.01545
            261  C 19 YZ      0.00000     0.11702
            262  C 20  S      1.50114     0.31340
            263  C 20  S     -1.07180     0.11164
            264  C 20  X      1.09279     0.67277
            265  C 20  Y      1.13332     0.72394
            266  C 20  Z      1.18413     0.77061
            267  C 20  X     -0.02002     0.18819
            268  C 20  Y     -0.07578     0.16229
            269  C 20  Z     -0.23185     0.19716
            270  C 20 XX      0.02376     0.04515
            271  C 20 YY      0.01231     0.16688
            272  C 20 ZZ      0.01006     0.14706
            273  C 20 XY      0.00544     0.01776
            274  C 20 XZ      0.02831     0.00755
            275  C 20 YZ      0.00000     0.06304
            276  C 20  S     -0.55220     0.03794
            277  C 20  X     -0.00206     0.01818
            278  C 20  Y      0.30433     0.03530
            279  C 20  Z     -0.01063     0.02317
            280  C 20 XX      0.03452     0.00038
            281  C 20 YY      0.00347     0.09491
            282  C 20 ZZ      0.02546     0.09709
            283  C 20 XY     -0.00191     0.06998
            284  C 20 XZ      0.06844     0.01545
            285  C 20 YZ      0.00000     0.11702
            286  C 21  S      1.51922     0.31436
            287  C 21  S     -0.04364     0.10940
            288  C 21  X      0.79262     0.46685
            289  C 21  Y      1.10563     0.68098
            290  C 21  Z      1.25014     0.79619
            291  C 21  X     -0.07601     0.13740
            292  C 21  Y      0.09301     0.14941
            293  C 21  Z     -0.23721     0.18210
            294  C 21 XX      0.03171     0.04313
            295  C 21 YY      0.02053     0.17691
            296  C 21 ZZ      0.03892     0.15408
            297  C 21 XY      0.00495     0.06689
            298  C 21 XZ      0.03013     0.00769
            299  C 21 YZ      0.00000     0.06437
            300  C 21  S     -0.15287     0.03674
            301  C 21  X      0.00579     0.01627
            302  C 21  Y      0.05085     0.03084
            303  C 21  Z      0.02132     0.01948
            304  C 21 XX      0.01535     0.00058
            305  C 21 YY      0.02295     0.12179
            306  C 21 ZZ      0.04894     0.09323
            307  C 21 XY     -0.00458     0.14510
            308  C 21 XZ      0.04705     0.01502
            309  C 21 YZ      0.00000     0.11584
            310  C 22  S      1.51922     0.31436
            311  C 22  S     -0.04364     0.10940
            312  C 22  X      0.79262     0.46685
            313  C 22  Y      1.10563     0.68098
            314  C 22  Z      1.25014     0.79619
            315  C 22  X     -0.07601     0.13740
            316  C 22  Y      0.09301     0.14941
            317  C 22  Z     -0.23721     0.18210
            318  C 22 XX      0.03171     0.04313
            319  C 22 YY      0.02053     0.17691
            320  C 22 ZZ      0.03892     0.15408
            321  C 22 XY      0.00495     0.06689
            322  C 22 XZ      0.03013     0.00769
            323  C 22 YZ      0.00000     0.06437
            324  C 22  S     -0.15287     0.03674
            325  C 22  X      0.00579     0.01627
            326  C 22  Y      0.05085     0.03084
            327  C 22  Z      0.02132     0.01948
            328  C 22 XX      0.01535     0.00058
            329  C 22 YY      0.02295     0.12179
            330  C 22 ZZ      0.04894     0.09323
            331  C 22 XY     -0.00458     0.14510
            332  C 22 XZ      0.04705     0.01502
            333  C 22 YZ      0.00000     0.11584
            334  N 23  S      1.62681     0.42331
            335  N 23  S     -0.56871     0.15314
            336  N 23  X      1.54735     1.06580
            337  N 23  Y      1.28274     0.87970
            338  N 23  Z      1.32556     0.91583
            339  N 23  X      0.08077     0.30239
            340  N 23  Y     -0.21156     0.27387
            341  N 23  Z     -0.15277     0.29937
            342  N 23 XX      0.00946     0.08120
            343  N 23 YY      0.00600     0.15663
            344  N 23 ZZ      0.00376     0.14530
            345  N 23 XY      0.00037     0.00513
            346  N 23 XZ      0.01293     0.00057
            347  N 23 YZ      0.00000     0.02852
            348  N 23  S     -0.17467     0.04235
            349  N 23  X     -0.00244     0.02404
            350  N 23  Y     -0.02415     0.03589
            351  N 23  Z     -0.04876     0.02422
            352  N 23 XX     -0.00574     0.00014
            353  N 23 YY     -0.00089     0.07010
            354  N 23 ZZ      0.01101     0.05223
            355  N 23 XY      0.00064     0.04004
            356  N 23 XZ     -0.00344     0.00360
            357  N 23 YZ      0.00000     0.10865
            358  N 24  S      1.62681     0.42331
            359  N 24  S     -0.56871     0.15314
            360  N 24  X      1.54735     1.06580
            361  N 24  Y      1.28274     0.87970
            362  N 24  Z      1.32556     0.91583
            363  N 24  X      0.08077     0.30239
            364  N 24  Y     -0.21156     0.27387
            365  N 24  Z     -0.15277     0.29937
            366  N 24 XX      0.00946     0.08120
            367  N 24 YY      0.00600     0.15663
            368  N 24 ZZ      0.00376     0.14530
            369  N 24 XY      0.00037     0.00513
            370  N 24 XZ      0.01293     0.00057
            371  N 24 YZ      0.00000     0.02852
            372  N 24  S     -0.17467     0.04235
            373  N 24  X     -0.00244     0.02404
            374  N 24  Y     -0.02415     0.03589
            375  N 24  Z     -0.04876     0.02422
            376  N 24 XX     -0.00574     0.00014
            377  N 24 YY     -0.00089     0.07010
            378  N 24 ZZ      0.01101     0.05223
            379  N 24 XY      0.00064     0.04004
            380  N 24 XZ     -0.00344     0.00360
            381  N 24 YZ      0.00000     0.10865

          ----- MULLIKEN ATOMIC OVERLAP POPULATIONS -----
          (OFF-DIAGONAL ELEMENTS NEED TO BE MULTIPLIED BY 2)

             1           2           3           4           5

    1    1.0387674
    2    0.0105494   0.9423176
    3    0.0105494  -0.0423050   0.9423177
    4   -0.0516948  -0.0106479  -0.0009965   0.9894065
    5   -0.0516949  -0.0009965  -0.0106479   0.0053179   0.9894066
    6    0.0002616  -0.0285662   0.0033262  -0.0072230  -0.0004737
    7    0.0002616   0.0033262  -0.0285661  -0.0004737  -0.0072230
    8    0.0009999   0.0039965  -0.0005779  -0.0146610   0.0001903
    9    0.0009999  -0.0005779   0.0039965   0.0001903  -0.0146610
   10    0.0004714   0.0017703  -0.0000466  -0.0024960  -0.0000243
   11    0.0004714  -0.0000466   0.0017703  -0.0000243  -0.0024960
   12   -0.0002752   0.0000205   0.0000266   0.0021529   0.0000182
   13   -0.0002752   0.0000266   0.0000205   0.0000182   0.0021529
   14   -0.0690021   0.1528081   0.1528085  -0.1578455  -0.1578453
   15    0.1266398   0.0379392  -0.1680676   0.1860938   0.0483330
   16    0.1266404  -0.1680673   0.0379383   0.0483330   0.1860932
   17   -0.0926731   0.0914772   0.0468322  -0.1914600  -0.0198757
   18   -0.0926729   0.0468322   0.0914778  -0.0198758  -0.1914594
   19   -0.0042294  -0.0727468  -0.0107371   0.1900998  -0.0014920
   20   -0.0042294  -0.0107371  -0.0727464  -0.0014919   0.1900995
   21   -0.0292446   0.0268744  -0.0026009   0.0475663   0.0033021
   22   -0.0292446  -0.0026009   0.0268743   0.0033021   0.0475664
   23    0.0021513  -0.0014628   0.0005252  -0.0071656  -0.0000997
   24    0.0021513   0.0005252  -0.0014628  -0.0000997  -0.0071656

             6           7           8           9          10

    6    0.8904472
    7   -0.0001629   0.8904473
    8   -0.0050579   0.0000069   0.9398972
    9    0.0000069  -0.0050579   0.0000044   0.9398972
   10   -0.0086967   0.0000006   0.0105091  -0.0000022   0.5957079
   11    0.0000006  -0.0086967  -0.0000022   0.0105090  -0.0000003
   12   -0.0028338  -0.0000031   0.0006945  -0.0000001  -0.0286123
   13   -0.0000031  -0.0028338  -0.0000001   0.0006945   0.0000002
   14    0.0613528   0.0613528  -0.0278985  -0.0278985  -0.0015678
   15   -0.1587600  -0.0135718   0.0578091  -0.0031138   0.0130203
   16   -0.0135717  -0.1587601  -0.0031138   0.0578092   0.0000058
   17    0.1446647  -0.0017768  -0.1930455   0.0021994  -0.0142032
   18   -0.0017769   0.1446651   0.0021994  -0.1930456  -0.0000503
   19    0.0684926  -0.0002292   0.3124314  -0.0004114   0.0345568
   20   -0.0002292   0.0684922  -0.0004114   0.3124318   0.0000050
   21    0.0842538  -0.0000115   0.0401325   0.0000498  -0.0318619
   22   -0.0000115   0.0842538   0.0000498   0.0401322  -0.0000055
   23   -0.0036297  -0.0000118  -0.0185585  -0.0000013   0.3576260
   24   -0.0000118  -0.0036297  -0.0000013  -0.0185585  -0.0000001

            11          12          13          14          15

   11    0.5957078
   12    0.0000002   0.5992459
   13   -0.0286123  -0.0000008   0.5992459
   14   -0.0015678  -0.0011709  -0.0011709  13.1673245
   15    0.0000058   0.0032783   0.0003840  -4.8303821  13.8037408
   16    0.0130203   0.0003840   0.0032783  -4.8303788  -1.3463328
   17   -0.0000503  -0.0109031  -0.0000423  -0.4431948  -3.9708861
   18   -0.0142032  -0.0000423  -0.0109031  -0.4431977   0.9472001
   19    0.0000050  -0.0019766  -0.0000063   0.7772485  -1.2154036
   20    0.0345570  -0.0000063  -0.0019768   0.7772480  -0.2711620
   21   -0.0000055   0.0095098   0.0000072  -0.1125768   0.4884472
   22   -0.0318621   0.0000072   0.0095099  -0.1125767   0.0176895
   23   -0.0000001   0.3971533  -0.0000010   0.0196924   0.0094907
   24    0.3576260  -0.0000010   0.3971533   0.0196924  -0.0009745

            16          17          18          19          20

   16   13.8037349
   17    0.9471996   9.9413480
   18   -3.9708840  -0.2066258   9.9413461
   19   -0.2711622  -2.2187044   0.0688778   7.4585394
   20   -1.2154020   0.0688781  -2.2187018  -0.0217202   7.4585331
   21    0.0176893   0.0734156   0.0105061  -1.6437256  -0.0006538
   22    0.4884471   0.0105061   0.0734150  -0.0006538  -1.6437240
   23   -0.0009745   0.0756961  -0.0001894   0.0142885  -0.0000934
   24    0.0094907  -0.0001894   0.0756959  -0.0000934   0.0142887

            21          22          23          24

   21    5.2907574
   22    0.0003561   5.2907565
   23    0.3126399  -0.0000054   3.5571945
   24   -0.0000054   0.3126397   0.0000000   3.5571944

          TOTAL MULLIKEN AND LOWDIN ATOMIC POPULATIONS
       ATOM         MULL.POP.    CHARGE          LOW.POP.     CHARGE
    1 H             0.895679    0.104321         0.891960    0.108040
    2 H             0.979708    0.020292         0.898278    0.101722
    3 H             0.979709    0.020291         0.898278    0.101722
    4 H             1.006325   -0.006325         0.890169    0.109831
    5 H             1.006325   -0.006325         0.890169    0.109831
    6 H             1.021798   -0.021798         0.900502    0.099498
    7 H             1.021798   -0.021798         0.900502    0.099498
    8 H             1.105593   -0.105593         0.872211    0.127789
    9 H             1.105593   -0.105593         0.872211    0.127789
   10 H             0.926106    0.073894         0.834171    0.165829
   11 H             0.926106    0.073894         0.834171    0.165829
   12 H             0.966666    0.033334         0.832701    0.167299
   13 H             0.966666    0.033334         0.832701    0.167299
   14 C             3.971254    0.028746         4.046229   -0.046229
   15 C             3.761417    0.238583         4.086001   -0.086001
   16 C             3.761417    0.238583         4.086001   -0.086001
   17 C             4.038586   -0.038586         4.043364   -0.043364
   18 C             4.038587   -0.038587         4.043364   -0.043364
   19 C             3.461248    0.538752         4.096847   -0.096847
   20 C             3.461247    0.538753         4.096847   -0.096847
   21 C             4.584821   -0.584821         3.944629    0.055371
   22 C             4.584821   -0.584821         3.944629    0.055371
   23 N             4.714265    0.285735         5.132032   -0.132032
   24 N             4.714265    0.285735         5.132032   -0.132032

          MULLIKEN SPHERICAL HARMONIC POPULATIONS
       ATOM           S       P       D      F      G      H      I    TOTAL
    1 H             0.92   -0.02    0.00   0.00   0.00   0.00   0.00    0.90
    2 H             0.99   -0.01    0.00   0.00   0.00   0.00   0.00    0.98
    3 H             0.99   -0.01    0.00   0.00   0.00   0.00   0.00    0.98
    4 H             1.03   -0.03    0.00   0.00   0.00   0.00   0.00    1.01
    5 H             1.03   -0.03    0.00   0.00   0.00   0.00   0.00    1.01
    6 H             1.02    0.00    0.00   0.00   0.00   0.00   0.00    1.02
    7 H             1.02    0.00    0.00   0.00   0.00   0.00   0.00    1.02
    8 H             1.10    0.01    0.00   0.00   0.00   0.00   0.00    1.11
    9 H             1.10    0.01    0.00   0.00   0.00   0.00   0.00    1.11
   10 H             0.87    0.06    0.00   0.00   0.00   0.00   0.00    0.93
   11 H             0.87    0.06    0.00   0.00   0.00   0.00   0.00    0.93
   12 H             0.88    0.08    0.00   0.00   0.00   0.00   0.00    0.97
   13 H             0.88    0.08    0.00   0.00   0.00   0.00   0.00    0.97
   14 C            -0.14    3.82    0.30   0.00   0.00   0.00   0.00    3.97
   15 C            -0.29    3.81    0.24   0.00   0.00   0.00   0.00    3.76
   16 C            -0.29    3.81    0.24   0.00   0.00   0.00   0.00    3.76
   17 C             0.30    3.43    0.31   0.00   0.00   0.00   0.00    4.04
   18 C             0.30    3.43    0.31   0.00   0.00   0.00   0.00    4.04
   19 C            -0.12    3.37    0.21   0.00   0.00   0.00   0.00    3.46
   20 C            -0.12    3.37    0.21   0.00   0.00   0.00   0.00    3.46
   21 C             1.32    3.01    0.26   0.00   0.00   0.00   0.00    4.58
   22 C             1.32    3.01    0.26   0.00   0.00   0.00   0.00    4.58
   23 N             0.88    3.80    0.03   0.00   0.00   0.00   0.00    4.71
   24 N             0.88    3.80    0.03   0.00   0.00   0.00   0.00    4.71

          ---------------------
          ELECTROSTATIC MOMENTS
          ---------------------

 POINT   1           X           Y           Z (BOHR)    CHARGE
                 0.000000    0.000000   -0.005040        1.00 (A.U.)
         DX          DY          DZ         /D/  (DEBYE)
     0.000000    0.000000    1.274611    1.274611
 ...... END OF PROPERTY EVALUATION ......
 STEP CPU TIME =     0.32 TOTAL CPU TIME =      938.4 (   15.6 MIN)
 TOTAL WALL CLOCK TIME=     3306.0 SECONDS, CPU UTILIZATION IS  28.39%
              56209213  WORDS OF DYNAMIC MEMORY USED
 EXECUTION OF GAMESS TERMINATED NORMALLY Tue Sep 26 18:32:03 2017
 DDI: 1128 bytes (0.0 MB / 0 MWords) used by master data server.

 ----------------------------------------
 CPU timing information for all processes
 ========================================
 0: 811.254700 + 127.839989 = 939.094689
 ----------------------------------------
 ddikick.x: exited gracefully.
----- accounting info -----
Tue Sep 26 18:32:07 CEST 2017
Files used on the master node lpqlx139 were:
-rw-r--r-- 1 scemama scemama     2432819 Sep 26 18:32 /backup/tmp//gamess/C9.dat
-rw-r--r-- 1 scemama scemama     2250276 Sep 26 17:36 /backup/tmp//gamess/C9.F05
-rw-r--r-- 1 scemama scemama 15317101072 Sep 26 17:43 /backup/tmp//gamess/C9.F08
-rw-r--r-- 1 scemama scemama      822192 Sep 26 18:27 /backup/tmp//gamess/C9.F09
-rw-r--r-- 1 scemama scemama    60990080 Sep 26 18:32 /backup/tmp//gamess/C9.F10
-rw-r--r-- 1 scemama scemama      268000 Sep 26 17:43 /backup/tmp//gamess/C9.F11
-rw-r--r-- 1 scemama scemama         248 Sep 26 18:27 /backup/tmp//gamess/C9.F12
-rw-r--r-- 1 scemama scemama     1425960 Sep 26 18:27 /backup/tmp//gamess/C9.F13
-rw-r--r-- 1 scemama scemama     4800008 Sep 26 18:27 /backup/tmp//gamess/C9.F14
-rw-r--r-- 1 scemama scemama      243744 Sep 26 18:27 /backup/tmp//gamess/C9.F15
-rw-r--r-- 1 scemama scemama      243744 Sep 26 18:27 /backup/tmp//gamess/C9.F16
-rw-r--r-- 1 scemama scemama     1905984 Sep 26 18:29 /backup/tmp//gamess/C9.F23
0.096u 1.000s 55:09.63 0.0%	0+0k 328+4400io 4pf+0w
