----- GAMESS execution script -----
This job is running on host lpqlx139
under operating system Linux at Fri Sep 22 20:17:48 CEST 2017
Available scratch disk space (Kbyte units) at beginning of the job is
Filesystem     1K-blocks  Used Available Use% Mounted on
tmpfs            6592140   708   6591432   1% /run/shm

 Distributed Data Interface kickoff program.
 Initiating 1 compute processes on 1 nodes to run the following command:
 /usr/local/gamess/gamess.01.x C1 

          ******************************************************
          *         GAMESS VERSION = 22 FEB 2006 (R5)          *
          *             FROM IOWA STATE UNIVERSITY             *
          * M.W.SCHMIDT, K.K.BALDRIDGE, J.A.BOATZ, S.T.ELBERT, *
          *   M.S.GORDON, J.H.JENSEN, S.KOSEKI, N.MATSUNAGA,   *
          *          K.A.NGUYEN, S.J.SU, T.L.WINDUS,           *
          *       TOGETHER WITH M.DUPUIS, J.A.MONTGOMERY       *
          *         J.COMPUT.CHEM.  14, 1347-1363(1993)        *
          ***************** AMD 64 BIT VERSION *****************

     SINCE 1993, STUDENTS AND POSTDOCS WORKING AT IOWA STATE UNIVERSITY
     AND ALSO IN THEIR VARIOUS JOBS AFTER LEAVING ISU HAVE MADE IMPORTANT
     CONTRIBUTIONS TO THE CODE:
     IVANA ADAMOVIC, CHRISTINE AIKENS, YURI ALEXEEV, POOJA ARORA, ROB BELL,
     PRADIPTA BANDYOPADHYAY, BRETT BODE, GALINA CHABAN, WEI CHEN,
     CHEOL HO CHOI, PAUL DAY, TIM DUDLEY, DMITRI FEDOROV, GRAHAM FLETCHER,
     MARK FREITAG, KURT GLAESEMANN, GRANT MERRILL, TAKESHI NAGATA,
     HEATHER NETZLOFF, BOSILJKA NJEGIC, RYAN OLSON, MIKE PAK, JIM SHOEMAKER,
     LYUDMILA SLIPCHENKO, JIE SONG, TETSUYA TAKETSUGU, SIMON WEBB.

     ADDITIONAL CODE HAS BEEN PROVIDED BY COLLABORATORS IN OTHER GROUPS:
     IOWA STATE UNIVERSITY: JOE IVANIC, KLAUS RUEDENBERG
     UNIVERSITY OF TOKYO: KIMIHIKO HIRAO, HARUYUKI NAKANO, TAKAHITO
          NAKAJIMA, TAKAO TSUNEDA, MUNEAKI KAMIYA, SUSUMU YANAGISAWA,
          KIYOSHI YAGI
     UNIVERSITY OF SOUTHERN DENMARK: FRANK JENSEN
     UNIVERSITY OF IOWA: VISVALDAS KAIRYS, HUI LI
     NATIONAL INST. OF STANDARDS AND TECHNOLOGY: WALT STEVENS, DAVID GARMER
     UNIVERSITY OF PISA: BENEDETTA MENNUCCI, JACOPO TOMASI
     UNIVERSITY OF MEMPHIS: HENRY KURTZ, PRAKASHAN KORAMBATH
     UNIVERSITY OF ALBERTA: MARIUSZ KLOBUKOWSKI
     UNIVERSITY OF NEW ENGLAND: MARK SPACKMAN
     MIE UNIVERSITY: HIROAKI UMEDA
     MICHIGAN STATE UNIVERSITY:
          KAROL KOWALSKI, MARTA WLOCH, PIOTR PIECUCH
     UNIVERSITY OF SILESIA: MONIKA MUSIAL, STANISLAW KUCHARSKI
     FACULTES UNIVERSITAIRES NOTRE-DAME DE LA PAIX:
          OLIVIER QUINET, BENOIT CHAMPAGNE
     UNIVERSITY OF CALIFORNIA - SANTA BARBARA: BERNARD KIRTMAN
     INSTITUTE FOR MOLECULAR SCIENCE: KAZUYA ISHIMURA AND SHIGERU NAGASE
     UNIVERSITY OF NOTRE DAME: DAN CHIPMAN
     KYUSHU UNIVERSITY:
          FENG LONG GU, JACEK KORCHOWIEC, MARCIN MAKOWSKI, AND YURIKO AOKI
     PENNSYLVANIA STATE UNIVERSITY:
          TZVETELIN IORDANOV, CHET SWALINA, SHARON HAMMES-SCHIFFER

 EXECUTION OF GAMESS BEGUN Fri Sep 22 20:17:48 2017

            ECHO OF THE FIRST FEW INPUT CARDS -
 INPUT CARD> $CONTRL                                                                        
 INPUT CARD>   EXETYP=RUN COORD=UNIQUE  UNITS=ANGS                                          
 INPUT CARD>   RUNTYP=ENERGY SCFTYP=MCSCF CITYP=NONE                                        
 INPUT CARD>   MAXIT=100                                                                    
 INPUT CARD>   ISPHER=1                                                                     
 INPUT CARD>   MULT=1                                                                       
 INPUT CARD>   ICHARG=1                                                                     
 INPUT CARD>   MPLEVL=0                                                                     
 INPUT CARD> $END                                                                           
 INPUT CARD>                                                                                
 INPUT CARD> $GUESS                                                                         
 INPUT CARD>  GUESS=MOREAD                                                                  
 INPUT CARD>  NORB=114                                                                      
 INPUT CARD> $END                                                                           
 INPUT CARD>                                                                                
 INPUT CARD> $SCF                                                                           
 INPUT CARD>  DIRSCF=.T.                                                                    
 INPUT CARD> $END                                                                           
 INPUT CARD>                                                                                
 INPUT CARD> $MCSCF                                                                         
 INPUT CARD>   FOCAS=.F.    SOSCF=.T.   FULLNR=.F.                                          
 INPUT CARD>   CISTEP=GUGA EKT=.F. QUAD=.F. JACOBI=.f.                                      
 INPUT CARD>   MAXIT=1000                                                                   
 INPUT CARD> $END                                                                           
 INPUT CARD>                                                                                
 INPUT CARD> $GUGDIA                                                                        
 INPUT CARD>  NSTATE=2                                                                      
 INPUT CARD> $END                                                                           
 INPUT CARD>                                                                                
 INPUT CARD> $GUGDM2                                                                        
 INPUT CARD>  WSTATE(1)=0.5,0.5                                                             
 INPUT CARD> $END                                                                           
 INPUT CARD>                                                                                
 INPUT CARD>                                                                                
 INPUT CARD> $DRT                                                                           
 INPUT CARD>  NMCC=11                                                                       
 INPUT CARD>  NDOC=1                                                                        
 INPUT CARD>  NALP=0                                                                        
 INPUT CARD>  NVAL=1                                                                        
 INPUT CARD>  NEXT=0                                                                        
 INPUT CARD>  ISTSYM=1                                                                      
 INPUT CARD>  FORS=.TRUE.                                                                   
 INPUT CARD>  GROUP=C1                                                                      
 INPUT CARD>  MXNINT= 600000                                                                
 INPUT CARD>  NPRT=2                                                                        
 INPUT CARD> $END                                                                           
 INPUT CARD>                                                                                
 INPUT CARD> $GUGDM                                                                         
 INPUT CARD>  NFLGDM(1)=1,1                                                                 
 INPUT CARD>  WSTATE(1)=0.5,0.5                                                             

 ..... DONE SETTING UP THE RUN .....
    1000000 WORDS OF MEMORY AVAILABLE

     BASIS OPTIONS
     -------------
     GBASIS=ACCD         IGAUSS=       0      POLAR=NONE    
     NDFUNC=       0     NFFUNC=       0     DIFFSP=       F
     NPFUNC=       0      DIFFS=       F


     RUN TITLE
     ---------
 C1                                                                              

 THE POINT GROUP OF THE MOLECULE IS C1      
 THE ORDER OF THE PRINCIPAL AXIS IS     0

 ATOM      ATOMIC                      COORDINATES (BOHR)
           CHARGE         X                   Y                   Z
 H           1.0     0.0000000000        0.0000000000        2.8510371566
 H           1.0     0.0000000000        2.3779555939       -2.2270175101
 H           1.0     0.0000000000       -2.3779555939       -2.2270175101
 H           1.0     0.0000000000        3.7891122547        0.7013585723
 H           1.0     0.0000000000       -3.7891122547        0.7013585723
 C           6.0     0.0000000000        0.0000000000        0.8015556236
 N           7.0     0.0000000000        2.1884670999       -0.3292186130
 N           7.0     0.0000000000       -2.1884670999       -0.3292186130

          INTERNUCLEAR DISTANCES (ANGS.)
          ------------------------------

                    H              H              H              H         

  1  H               0.0000000      2.9672319 *    2.9672319 *    2.3053241 *  
  2  H               2.9672319 *    0.0000000      2.5167200 *    1.7201720 *  
  3  H               2.9672319 *    2.5167200 *    0.0000000      3.6127002    
  4  H               2.3053241 *    1.7201720 *    3.6127002      0.0000000    
  5  H               2.3053241 *    3.6127002      1.7201720 *    4.0102240    
  6  C               1.0845390 *    2.0376367 *    2.0376367 *    2.0058129 *  
  7  N               2.0428857 *    1.0092655 *    2.6168260 *    1.0074059 *  
  8  N               2.0428857 *    2.6168260 *    1.0092655 *    3.2098665    

                    H              C              N              N         

  1  H               2.3053241 *    1.0845390 *    2.0428857 *    2.0428857 *  
  2  H               3.6127002      2.0376367 *    1.0092655 *    2.6168260 *  
  3  H               1.7201720 *    2.0376367 *    2.6168260 *    1.0092655 *  
  4  H               4.0102240      2.0058129 *    1.0074059 *    3.2098665    
  5  H               0.0000000      2.0058129 *    3.2098665      1.0074059 *  
  6  C               2.0058129 *    0.0000000      1.3035429 *    1.3035429 *  
  7  N               3.2098665      1.3035429 *    0.0000000      2.3161740 *  
  8  N               1.0074059 *    1.3035429 *    2.3161740 *    0.0000000    

  * ... LESS THAN  3.000


     ATOMIC BASIS SET
     ----------------
 THE CONTRACTED PRIMITIVE FUNCTIONS HAVE BEEN UNNORMALIZED
 THE CONTRACTED BASIS FUNCTIONS ARE NOW NORMALIZED TO UNITY

  SHELL TYPE  PRIMITIVE        EXPONENT          CONTRACTION COEFFICIENT(S)

 H         

      1   S       1            13.0100000    0.033498726390
      1   S       2             1.9620000    0.234800801174
      1   S       3             0.4446000    0.813682957883

      2   S       4             0.1220000    1.000000000000

      3   P       5             0.7270000    1.000000000000

      4   S       6             0.0297400    1.000000000000

      5   P       7             0.1410000    1.000000000000

 H         

      6   S       8            13.0100000    0.033498726390
      6   S       9             1.9620000    0.234800801174
      6   S      10             0.4446000    0.813682957883

      7   S      11             0.1220000    1.000000000000

      8   P      12             0.7270000    1.000000000000

      9   S      13             0.0297400    1.000000000000

     10   P      14             0.1410000    1.000000000000

 H         

     11   S      15            13.0100000    0.033498726390
     11   S      16             1.9620000    0.234800801174
     11   S      17             0.4446000    0.813682957883

     12   S      18             0.1220000    1.000000000000

     13   P      19             0.7270000    1.000000000000

     14   S      20             0.0297400    1.000000000000

     15   P      21             0.1410000    1.000000000000

 H         

     16   S      22            13.0100000    0.033498726390
     16   S      23             1.9620000    0.234800801174
     16   S      24             0.4446000    0.813682957883

     17   S      25             0.1220000    1.000000000000

     18   P      26             0.7270000    1.000000000000

     19   S      27             0.0297400    1.000000000000

     20   P      28             0.1410000    1.000000000000

 H         

     21   S      29            13.0100000    0.033498726390
     21   S      30             1.9620000    0.234800801174
     21   S      31             0.4446000    0.813682957883

     22   S      32             0.1220000    1.000000000000

     23   P      33             0.7270000    1.000000000000

     24   S      34             0.0297400    1.000000000000

     25   P      35             0.1410000    1.000000000000

 C         

     26   S      36          6665.0000000    0.000691583963
     26   S      37          1000.0000000    0.005325796153
     26   S      38           228.0000000    0.027060721042
     26   S      39            64.7100000    0.101656846141
     26   S      40            21.0600000    0.274574823617
     26   S      41             7.4950000    0.448294318924
     26   S      42             2.7970000    0.284902610715
     26   S      43             0.5215000    0.015194859206

     27   S      44          6665.0000000   -0.000293269653
     27   S      45          1000.0000000   -0.002318035474
     27   S      46           228.0000000   -0.011499786039
     27   S      47            64.7100000   -0.046826727010
     27   S      48            21.0600000   -0.128466168750
     27   S      49             7.4950000   -0.301266272463
     27   S      50             2.7970000   -0.255630702330
     27   S      51             0.5215000    1.093793361012

     28   S      52             0.1596000    1.000000000000

     29   P      53             9.4390000    0.056979251590
     29   P      54             2.0020000    0.313207211501
     29   P      55             0.5456000    0.760376741738

     30   P      56             0.1517000    1.000000000000

     31   D      57             0.5500000    1.000000000000

     32   S      58             0.0469000    1.000000000000

     33   P      59             0.0404100    1.000000000000

     34   D      60             0.1510000    1.000000000000

 N         

     35   S      61          9046.0000000    0.000699617413
     35   S      62          1357.0000000    0.005386054630
     35   S      63           309.3000000    0.027391021189
     35   S      64            87.7300000    0.103150591982
     35   S      65            28.5600000    0.278570663317
     35   S      66            10.2100000    0.448294849454
     35   S      67             3.8380000    0.278085928395
     35   S      68             0.7466000    0.015431561233

     36   S      69          9046.0000000   -0.000304990096
     36   S      70          1357.0000000   -0.002408026379
     36   S      71           309.3000000   -0.011944448725
     36   S      72            87.7300000   -0.048925992909
     36   S      73            28.5600000   -0.134472724725
     36   S      74            10.2100000   -0.315112577700
     36   S      75             3.8380000   -0.242857832550
     36   S      76             0.7466000    1.094382206854

     37   S      77             0.2248000    1.000000000000

     38   P      78            13.5500000    0.058905676772
     38   P      79             2.9170000    0.320461106714
     38   P      80             0.7973000    0.753042061792

     39   P      81             0.2185000    1.000000000000

     40   D      82             0.8170000    1.000000000000

     41   S      83             0.0612400    1.000000000000

     42   P      84             0.0561100    1.000000000000

     43   D      85             0.2300000    1.000000000000

 N         

     44   S      86          9046.0000000    0.000699617413
     44   S      87          1357.0000000    0.005386054630
     44   S      88           309.3000000    0.027391021189
     44   S      89            87.7300000    0.103150591982
     44   S      90            28.5600000    0.278570663317
     44   S      91            10.2100000    0.448294849454
     44   S      92             3.8380000    0.278085928395
     44   S      93             0.7466000    0.015431561233

     45   S      94          9046.0000000   -0.000304990096
     45   S      95          1357.0000000   -0.002408026379
     45   S      96           309.3000000   -0.011944448725
     45   S      97            87.7300000   -0.048925992909
     45   S      98            28.5600000   -0.134472724725
     45   S      99            10.2100000   -0.315112577700
     45   S     100             3.8380000   -0.242857832550
     45   S     101             0.7466000    1.094382206854

     46   S     102             0.2248000    1.000000000000

     47   P     103            13.5500000    0.058905676772
     47   P     104             2.9170000    0.320461106714
     47   P     105             0.7973000    0.753042061792

     48   P     106             0.2185000    1.000000000000

     49   D     107             0.8170000    1.000000000000

     50   S     108             0.0612400    1.000000000000

     51   P     109             0.0561100    1.000000000000

     52   D     110             0.2300000    1.000000000000

 TOTAL NUMBER OF BASIS SET SHELLS             =   52
 NUMBER OF CARTESIAN GAUSSIAN BASIS FUNCTIONS =  120
 NOTE: THIS RUN WILL RESTRICT THE MO VARIATION SPACE TO SPHERICAL HARMONICS.
 THE NUMBER OF ORBITALS KEPT IN THE VARIATIONAL SPACE WILL BE PRINTED LATER.
 NUMBER OF ELECTRONS                          =   24
 CHARGE OF MOLECULE                           =    1
 SPIN MULTIPLICITY                            =    1
 NUMBER OF OCCUPIED ORBITALS (ALPHA)          =   12
 NUMBER OF OCCUPIED ORBITALS (BETA )          =   12
 TOTAL NUMBER OF ATOMS                        =    8
 THE NUCLEAR REPULSION ENERGY IS       80.0312601802

     $CONTRL OPTIONS
     ---------------
 SCFTYP=MCSCF        RUNTYP=ENERGY       EXETYP=RUN     
 MPLEVL=       0     CITYP =NONE         CCTYP =NONE         VBTYP =NONE    
 MULT  =       1     ICHARG=       1     NZVAR =       0     COORD =UNIQUE  
 PP    =NONE         RELWFN=NONE         LOCAL =NONE         NUMGRD=       F
 ISPHER=       1     NOSYM =       0     MAXIT =     100     UNITS =ANGS    
 PLTORB=       F     MOLPLT=       F     AIMPAC=       F     FRIEND=        
 NPRINT=       7     IREST =       0     GEOM  =INPUT   
 NORMF =       0     NORMP =       0     ITOL  =      20     ICUT  =       9
 INTTYP=BEST         GRDTYP=BEST         QMTTOL= 1.0E-06

     $SYSTEM OPTIONS
     ---------------
  REPLICATED MEMORY=     1000000 WORDS (ON EVERY NODE).
 DISTRIBUTED MEMDDI=           0 MILLION WORDS IN AGGREGATE,
 MEMDDI DISTRIBUTED OVER   1 PROCESSORS IS           0 WORDS/PROCESSOR.
 TOTAL MEMORY REQUESTED ON EACH PROCESSOR=     1000000 WORDS.
 TIMLIM=      525600.00 MINUTES, OR   365.00 DAYS.
 PARALL= F  BALTYP=  NXTVAL  KDIAG=    0  COREFL= F

          ----------------
          PROPERTIES INPUT
          ----------------

     MOMENTS            FIELD           POTENTIAL          DENSITY
 IEMOM =       1   IEFLD =       0   IEPOT =       0   IEDEN =       0
 WHERE =COMASS     WHERE =NUCLEI     WHERE =NUCLEI     WHERE =NUCLEI  
 OUTPUT=BOTH       OUTPUT=BOTH       OUTPUT=BOTH       OUTPUT=BOTH    
 IEMINT=       0   IEFINT=       0                     IEDINT=       0
                                                       MORB  =       0

     -------------------------------
     INTEGRAL TRANSFORMATION OPTIONS
     -------------------------------
     NWORD  =       0     CUTOFF = 1.0E-09
     MPTRAN =       0     DIRTRF =       F
     AOINTS =DUP     

          ----------------------
          MCSCF INPUT PARAMETERS
          ----------------------
 CONVERGER SELECTION: FOCAS = F  SOSCF = T  FULLNR = F  QUD = F  JACOBI = F
 SECULAR EQUATION METHOD CISTEP = GUGA    
 --- GENERAL INPUT OPTIONS:
 MAXIT =    1000  MICIT =       5  ACURCY= 1.000E-05
 DAMP  =   0.000  CANONC=       T  ENGTOL= 1.000E-10
 EKT   =       F  NPUNCH=       2  NWORD =         0
 --- INPUT FOR SOSCF CONVERGER:
 FORS  =       T  NOFO  =       1

          ----------------------
          INTEGRAL INPUT OPTIONS
          ----------------------
 NOPK  =       1 NORDER=       0 SCHWRZ=       T

     ------------------------------------------
     THE POINT GROUP IS C1 , NAXIS= 0, ORDER= 1
     ------------------------------------------

 -- VARIATIONAL SPACE WILL BE RESTRICTED TO PURE SPHERICAL HARMONICS ONLY --
 AFTER EXCLUDING CONTAMINANT COMBINATIONS FROM THE CARTESIAN GAUSSIAN BASIS
 SET, THE NUMBER OF SPHERICAL HARMONICS KEPT IN THE VARIATION SPACE IS  114

     DIMENSIONS OF THE SYMMETRY SUBSPACES ARE
 A   =  114

 ..... DONE SETTING UP THE RUN .....
 STEP CPU TIME =     0.04 TOTAL CPU TIME =        0.0 (    0.0 MIN)
 TOTAL WALL CLOCK TIME=        0.0 SECONDS, CPU UTILIZATION IS 100.00%

          ********************
          1 ELECTRON INTEGRALS
          ********************
 TIME TO DO   DIPOLE INTEGRALS=      0.01
 ...... END OF ONE-ELECTRON INTEGRALS ......
 STEP CPU TIME =     0.01 TOTAL CPU TIME =        0.0 (    0.0 MIN)
 TOTAL WALL CLOCK TIME=        0.0 SECONDS, CPU UTILIZATION IS 100.00%

          -------------
          GUESS OPTIONS
          -------------
          GUESS =MOREAD            NORB  =     114          NORDER=       0
          MIX   =       F          PRTMO =       F          PUNMO =       F
          TOLZ  = 1.0E-08          TOLE  = 1.0E-05
          SYMDEN=       F          PURIFY=       F

 INITIAL GUESS ORBITALS GENERATED BY MOREAD   ROUTINE.

 STATISTICS FOR GENERATION OF SYMMETRY ORBITAL -Q- MATRIX
 NUMBER OF CARTESIAN ATOMIC ORBITALS=        120
 NUMBER OF SPHERICAL CONTAMINANTS DROPPED=     6
 NUMBER OF LINEARLY DEPENDENT MOS DROPPED=     0
 TOTAL NUMBER OF MOS IN VARIATION SPACE=     114

 SYMMETRIES FOR INITIAL GUESS ORBITALS FOLLOW.   BOTH SET(S).
    13 ORBITALS ARE OCCUPIED (    3 CORE ORBITALS).
     1=A        2=A        3=A        4=A        5=A        6=A        7=A   
     8=A        9=A       10=A       11=A       12=A       13=A       14=A   
    15=A       16=A       17=A       18=A       19=A       20=A       21=A   
    22=A       23=A       24=A       25=A       26=A       27=A       28=A   
    29=A       30=A       31=A       32=A       33=A       34=A       35=A   
    36=A       37=A       38=A       39=A       40=A       41=A       42=A   
    43=A       44=A       45=A       46=A       47=A       48=A       49=A   
    50=A       51=A       52=A       53=A       54=A       55=A       56=A   
    57=A       58=A       59=A       60=A       61=A       62=A       63=A   
    64=A       65=A       66=A       67=A       68=A       69=A       70=A   
    71=A       72=A       73=A       74=A       75=A       76=A       77=A   
    78=A       79=A       80=A       81=A       82=A       83=A       84=A   
    85=A       86=A       87=A       88=A       89=A       90=A       91=A   
    92=A       93=A       94=A       95=A       96=A       97=A       98=A   
    99=A      100=A      101=A      102=A      103=A      104=A      105=A   
   106=A      107=A      108=A      109=A      110=A      111=A      112=A   
   113=A      114=A   
 ...... END OF INITIAL ORBITAL SELECTION ......
 STEP CPU TIME =     0.02 TOTAL CPU TIME =        0.1 (    0.0 MIN)
 TOTAL WALL CLOCK TIME=        0.0 SECONDS, CPU UTILIZATION IS 100.00%

                    ----------------------
                    AO INTEGRAL TECHNOLOGY
                    ----------------------
     S,P,L SHELL ROTATED AXIS INTEGRALS, REPROGRAMMED BY
        KAZUYA ISHIMURA (IMS) AND JOSE SIERRA (SYNSTAR).
     S,P,D,L SHELL ROTATED AXIS INTEGRALS PROGRAMMED BY
        KAZUYA ISHIMURA (INSTITUTE FOR MOLECULAR SCIENCE).
     S,P,D,F,G SHELL TO TOTAL QUARTET ANGULAR MOMENTUM SUM 5,
        ERIC PROGRAM BY GRAHAM FLETCHER (ELORET AND NASA ADVANCED
        SUPERCOMPUTING DIVISION, AMES RESEARCH CENTER).
     S,P,D,F,G,L SHELL GENERAL RYS QUADRATURE PROGRAMMED BY
        MICHEL DUPUIS (PACIFIC NORTHWEST NATIONAL LABORATORY).

          --------------------
          2 ELECTRON INTEGRALS
          --------------------

 THE -PK- OPTION IS OFF, THE INTEGRALS ARE NOT IN SUPERMATRIX FORM.
 STORING   15000 INTEGRALS/RECORD ON DISK, USING 12 BYTES/INTEGRAL.
 TWO ELECTRON INTEGRAL EVALUATION REQUIRES   91774 WORDS OF MEMORY.
 SCHWARZ INEQUALITY OVERHEAD:      7260 INTEGRALS, T=        0.00
 II,JST,KST,LST =  1  1  1  1 NREC =         1 INTLOC =    1
 II,JST,KST,LST =  2  1  1  1 NREC =         1 INTLOC =    2
 II,JST,KST,LST =  3  1  1  1 NREC =         1 INTLOC =    7
 II,JST,KST,LST =  4  1  1  1 NREC =         1 INTLOC =   34
 II,JST,KST,LST =  5  1  1  1 NREC =         1 INTLOC =   67
 II,JST,KST,LST =  6  1  1  1 NREC =         1 INTLOC =  214
 II,JST,KST,LST =  7  1  1  1 NREC =         1 INTLOC =  529
 II,JST,KST,LST =  8  1  1  1 NREC =         1 INTLOC =  960
 II,JST,KST,LST =  9  1  1  1 NREC =         1 INTLOC = 2737
 II,JST,KST,LST = 10  1  1  1 NREC =         1 INTLOC = 3742
 II,JST,KST,LST = 11  1  1  1 NREC =         1 INTLOC = 7469
 II,JST,KST,LST = 12  1  1  1 NREC =         1 INTLOC = 9408
 II,JST,KST,LST = 13  1  1  1 NREC =         1 INTLOC =11704
 II,JST,KST,LST = 14  1  1  1 NREC =         2 INTLOC = 4364
 II,JST,KST,LST = 15  1  1  1 NREC =         2 INTLOC = 8112
 II,JST,KST,LST = 16  1  1  1 NREC =         3 INTLOC = 5311
 II,JST,KST,LST = 17  1  1  1 NREC =         3 INTLOC =11801
 II,JST,KST,LST = 18  1  1  1 NREC =         4 INTLOC = 4191
 II,JST,KST,LST = 19  1  1  1 NREC =         5 INTLOC =12175
 II,JST,KST,LST = 20  1  1  1 NREC =         6 INTLOC = 7892
 II,JST,KST,LST = 21  1  1  1 NREC =         8 INTLOC =11887
 II,JST,KST,LST = 22  1  1  1 NREC =         9 INTLOC =11024
 II,JST,KST,LST = 23  1  1  1 NREC =        10 INTLOC =12230
 II,JST,KST,LST = 24  1  1  1 NREC =        13 INTLOC =11251
 II,JST,KST,LST = 25  1  1  1 NREC =        15 INTLOC = 2638
 II,JST,KST,LST = 26  1  1  1 NREC =        19 INTLOC = 7601
 II,JST,KST,LST = 27  1  1  1 NREC =        21 INTLOC = 5593
 II,JST,KST,LST = 28  1  1  1 NREC =        23 INTLOC = 6046
 II,JST,KST,LST = 29  1  1  1 NREC =        25 INTLOC = 8798
 II,JST,KST,LST = 30  1  1  1 NREC =        32 INTLOC = 1557
 II,JST,KST,LST = 31  1  1  1 NREC =        39 INTLOC =12135
 II,JST,KST,LST = 32  1  1  1 NREC =        59 INTLOC = 2961
 II,JST,KST,LST = 33  1  1  1 NREC =        63 INTLOC = 6267
 II,JST,KST,LST = 34  1  1  1 NREC =        75 INTLOC =13648
 II,JST,KST,LST = 35  1  1  1 NREC =       106 INTLOC = 2530
 II,JST,KST,LST = 36  1  1  1 NREC =       112 INTLOC =11187
 II,JST,KST,LST = 37  1  1  1 NREC =       119 INTLOC =12515
 II,JST,KST,LST = 38  1  1  1 NREC =       127 INTLOC = 4441
 II,JST,KST,LST = 39  1  1  1 NREC =       149 INTLOC = 2948
 II,JST,KST,LST = 40  1  1  1 NREC =       173 INTLOC =14741
 II,JST,KST,LST = 41  1  1  1 NREC =       232 INTLOC =  586
 II,JST,KST,LST = 42  1  1  1 NREC =       244 INTLOC =   13
 II,JST,KST,LST = 43  1  1  1 NREC =       279 INTLOC = 4041
 II,JST,KST,LST = 44  1  1  1 NREC =       360 INTLOC =11289
 II,JST,KST,LST = 45  1  1  1 NREC =       376 INTLOC = 9948
 II,JST,KST,LST = 46  1  1  1 NREC =       393 INTLOC = 8397
 II,JST,KST,LST = 47  1  1  1 NREC =       411 INTLOC = 1834
 II,JST,KST,LST = 48  1  1  1 NREC =       462 INTLOC = 1068
 II,JST,KST,LST = 49  1  1  1 NREC =       517 INTLOC =14428
 II,JST,KST,LST = 50  1  1  1 NREC =       643 INTLOC = 6519
 II,JST,KST,LST = 51  1  1  1 NREC =       668 INTLOC = 6022
 II,JST,KST,LST = 52  1  1  1 NREC =       741 INTLOC = 2913
 SCHWARZ INEQUALITY TEST SKIPPED      1228 INTEGRAL BLOCKS.
 TOTAL NUMBER OF NONZERO TWO-ELECTRON INTEGRALS =            13540510
        903 INTEGRAL RECORDS WERE STORED ON DISK FILE  8.
  ...... END OF TWO-ELECTRON INTEGRALS .....
 STEP CPU TIME =     2.34 TOTAL CPU TIME =        2.4 (    0.0 MIN)
 TOTAL WALL CLOCK TIME=        4.0 SECONDS, CPU UTILIZATION IS  60.25%

          -----------------
          MCSCF CALCULATION
          -----------------

 ----- NUCLEAR ENERGY ----- =        80.0312601802

          -----------------------     ----------------------------
          GUGA DISTINCT ROW TABLE     WRITTEN BY B.R.BROOKS,P.SAXE
          -----------------------     ----------------------------

      GROUP=C1           NPRT=       2
       FORS=       T   INTACT=       F
       FOCI=       F   MXNINT=  600000
       SOCI=       F   MXNEME=   10000
     IEXCIT=       0

      -CORE-    -INTERNAL-  -EXTERNAL-
     NFZC=   0   NDOC=   1   NEXT=   0
     NMCC=  11   NAOS=   0   NFZV=   0
                 NBOS=   0
                 NALP=   0
                 NVAL=   1

 THE MAXIMUM ELECTRON EXCITATION WILL BE   2

 SYMMETRIES FOR THE  11 CORE,   2 ACTIVE,   0 EXTERNAL MO-S ARE
     CORE= A     A     A     A     A     A     A     A     A     A   
           A   
   ACTIVE= A     A   
           DOC   VAL 

 MOLECULAR CHARGE          =    1
 NUMBER OF ALPHA ELECTRONS =   12
 NUMBER OF  BETA ELECTRONS =   12

 THE ELECTRONIC STATE IS  1-A   

 THE DISTINCT ROW TABLE HAS         5 ROWS.
  THE WAVEFUNCTION CONTAINS         3 WALKS (CSF-S).


          DETERMINANT CONTRIBUTION TO CSF'S (BETA IS MINUS)
          -------------------------------------------------
 CASE VECTOR =       1
 14

 FOR MS=S-0
 CSF      1: C(  1)= 1.000000 :   12-12
 CASE VECTOR =       2
 23

 FOR MS=S-0
 CSF      2: C(  1)=-0.707107 :  -13 12
             C(  2)= 0.707107 :   13-12
 CASE VECTOR =       3
 41

 FOR MS=S-0
 CSF      3: C(  1)= 1.000000 :   13-13

 TOTAL NUMBER OF INTEGRALS =          9
 NUMBER OF INTEGRALS/GROUP =          9
 NUMBER OF INTEGRAL GROUPS =          1
 MAXIMUM RECORD SIZES ARE     200 FOR UNIT 11      22 FOR UNIT 12
                            30001 FOR UNIT 15   30001 FOR UNIT 16
 ...... END OF -DRT- GENERATION ...... 
 STEP CPU TIME =     0.00 TOTAL CPU TIME =        2.4 (    0.0 MIN)
 TOTAL WALL CLOCK TIME=        4.0 SECONDS, CPU UTILIZATION IS  60.25%
 OPENING FILE DAFL30 WITH      81 LOGICAL RECORDS OF   14400 WORDS
 WITH A MAXIMUM OF         648 PHYSICAL RECORDS OF    2048 WORDS

          ------------------------------
          CASSCF INTEGRAL TRANSFORMATION
          ------------------------------
 AO INTEGRALS WILL BE READ IN FROM DISK...
 MEMORY WHICH WOULD BE NEEDED FOR SINGLE PASS TRANSFORMATION =    1860481

 ----- CHOOSING THREE STEPS TRANSFORMATION -----
 NUMBER OF WORDS USED      =     706141
 NUMBER OF WORDS AVAILABLE =    1000000
 NUMBER OF PASSES          =          3
 PASS #   1 COMPLETED IN         0.4 SECONDS.
 PASS #   2 COMPLETED IN         0.3 SECONDS.
 PASS #   3 COMPLETED IN         0.3 SECONDS.

 ----- NUCLEAR REPULSION ENERGY =     80.03126018
 ----- FROZEN CORE ENERGY       =   -227.79650873

 ... SYMMETRY ...           CPU =    0.01
 ... (PQ|RS) -> (PQ|KL) ... CPU =    1.03
 ... (PQ|KL) -> (IJ|KL) ... CPU =    0.00

 NUMBER OF (PQ|KL) INTEGRALS WRITTEN      11263
 NUMBER OF (IJ|KL) INTEGRALS WRITTEN          4
 ..... END OF CAS INTEGRAL TRANSFORMATION .....
 STEP CPU TIME =     1.04 TOTAL CPU TIME =        3.4 (    0.1 MIN)
 TOTAL WALL CLOCK TIME=        6.0 SECONDS, CPU UTILIZATION IS  57.50%

          ------------------------
          GUGA-CI INTEGRAL SORTING
          ------------------------

    630017 WORDS NEEDED TO SORT              9 GUGA INTEGRALS IN MEMORY
   1000000 WORDS ARE AVAILABLE
 CHOOSING IN-MEMORY SORTING...
 IN CORE ALGORITHM SORTED              3 NON-ZERO 1E- INTEGRALS
 IN CORE ALGORITHM SORTED              4 NON-ZERO 2E- INTEGRALS
 ...... END OF INTEGRAL SORTING ...... 
 STEP CPU TIME =     0.01 TOTAL CPU TIME =        3.5 (    0.1 MIN)
 TOTAL WALL CLOCK TIME=        6.0 SECONDS, CPU UTILIZATION IS  57.67%

 -------------------------     ---------------------------------------
 ENERGY MATRIX CALCULATION     WRITTEN BY B.R.BROOKS,W.D.LAIDIG,P.SAXE
 -------------------------     ---------------------------------------

 COMPUTING THE HAMILTONIAN FOR THE         3 CSF-S...

           8 IS THE TOTAL NUMBER OF GENERATED LOOPS
           8 WERE CREATED BY THE LOOP-DRIVEN ALGORITHM
           0 WERE CREATED IMPLICITLY

           6 IS THE TOTAL NUMBER OF PROCESSED LOOPS
           5     DIAGONAL LOOPS ARE STORED ON WORK15 IN     1 BUFFERS OF  10000 ELEMENTS.
           1 OFF DIAGONAL LOOPS ARE STORED ON WORK16 IN     1 BUFFERS OF  10000 ELEMENTS.
 ...... END OF ENERGY MATRIX CALCULATION ...... 
 STEP CPU TIME =     0.00 TOTAL CPU TIME =        3.5 (    0.1 MIN)
 TOTAL WALL CLOCK TIME=        6.0 SECONDS, CPU UTILIZATION IS  57.67%

          -----------------------------------------
          DAVIDSON METHOD CI-MATRIX DIAGONALIZATION
                   WRITTEN BY STEVE ELBERT
          -----------------------------------------
 NUMBER OF STATES REQUESTED =     2
 MAX. NUMB. OF EXPAN. VEC   =    30
 MAX. NUMB. IMPROVED STATES =     2
 MAX. NUMB. OF ITERATIONS   =    50
 CONVERGENCE CRITERION      =    1.0E-05

 CHOOSING TO SOLVE SECULAR EQUATION IN MEMORY
 NUMBER OF WORDS AVAILABLE =    1000000
 NUMBER OF WORDS USED      =      31005
 ENERGY MATRIX BUFFER SIZE =      10000
 SOLUTION FOUND WITH DIRECT METHOD

 STATE #    1  ENERGY =    -149.493836547

      CSF      COEF    OCCUPANCY (IGNORING CORE)
      ---      ----    --------- --------- -----
        1    0.999999  20

 STATE #    2  ENERGY =    -149.118029120

      CSF      COEF    OCCUPANCY (IGNORING CORE)
      ---      ----    --------- --------- -----
        2    1.000000  11

 RENORMALIZED DAVIDSON CORRECTION FOR     1-REFERENCE CI.
 C0SQ= 0.999998 EREF=     -149.493834 E-E(REF)=   0.000002 E(Q)=   0.000000
 GIVES A E(SD+Q) ESTIMATE OF     -149.4938365474
 ...... END OF CI-MATRIX DIAGONALIZATION ......
 STEP CPU TIME =     0.01 TOTAL CPU TIME =        3.5 (    0.1 MIN)
 TOTAL WALL CLOCK TIME=        6.0 SECONDS, CPU UTILIZATION IS  57.83%

          -------------------------------------
          2-PARTICLE DENSITY MATRIX CALCULATION
          -------------------------------------
 2 BODY DENSITY IS AN AVERAGE OF  2 STATE(S).
   STATE    WEIGHT          ENERGY
     1    0.500000     -149.4938365474
     2    0.500000     -149.1180291202
            8 -DM2- LOOPS WERE GENERATED
            8 WERE CREATED BY THE LOOP-DRIVEN ALGORITHM
            0 WERE CREATED IMPLICITLY
          1 RECORDS OF LENGTH600000 WRITTEN TO FILE 15
 ...... END OF 2-PARTICLE DENSITY MATRIX CALCULATION ......
 STEP CPU TIME =     0.01 TOTAL CPU TIME =        3.5 (    0.1 MIN)
 TOTAL WALL CLOCK TIME=        6.0 SECONDS, CPU UTILIZATION IS  58.00%

          ----------------------------------
          2-PARTICLE DENSITY MATRIX LABELING
          ----------------------------------
     646489 WORDS NEEDED TO LABEL DM2 MATRIX
          1 RECORDS OF LENGTH600000  READ FROM FILE 15
          1 RECORDS OF LENGTH 15000 WRITTEN TO FILE 16
 ...... END OF 2-PARTICLE DENSITY MATRIX LABELING ......
 STEP CPU TIME =     0.00 TOTAL CPU TIME =        3.5 (    0.1 MIN)
 TOTAL WALL CLOCK TIME=        6.0 SECONDS, CPU UTILIZATION IS  58.00%

          --------------
          -DM2- ORDERING
          --------------
      30010 WORDS NEEDED (   1000000 AVAILABLE) TO ORDER DM2 IN MEMORY
 CHOOSING IN MEMORY ORDERING...
                               1 RECORDS OF LENGTH 15000  READ FROM FILE 16
          4 DM2 VALUES IN      1 RECORDS OF LENGTH 15000 WRITTEN TO FILE 15
 ...... END OF -DM2- ORDERING ...... 
 STEP CPU TIME =     0.00 TOTAL CPU TIME =        3.5 (    0.1 MIN)
 TOTAL WALL CLOCK TIME=        6.0 SECONDS, CPU UTILIZATION IS  58.00%

          --------------------------------------
          APPROXIMATE SECOND-ORDER MCSCF PROGRAM
          --------------------------------------
          PROGRAM WRITTEN BY G.CHABAN, A.MARQUEZ, AND M.DUPUIS

  NUMBER OF WORDS NEEDED     =     132387
  NUMBER AVAILABLE           =    1000000

 ----- GAMMA(IJKL)*(PQ|KL) PRODUCTS ----- CPU TIME =      0.000
 ----- ORBITAL SYMMETRY             ----- CPU TIME =      0.000
 ----- FOCK OPERATORS CONSTRUCTION  ----- CPU TIME =      0.250
 ----- WARNING : CORE-ACTIVE GAP    =    0.46740
     MICIT =   1 ASYMM =    0.031128 ROTMAX =    0.025384
 ----- EFFECTIVE FOCK + ROTATE ORBS ----- CPU TIME =      0.010
     MICIT =   2 ASYMM =    0.018382 ROTMAX =    0.007185
     MICIT =   3 ASYMM =    0.017991 ROTMAX =    0.011061
     MICIT =   4 ASYMM =    0.017406 ROTMAX =    0.015167
     MICIT =   5 ASYMM =    0.016939 ROTMAX =    0.013280
 ..... DONE WITH CASSCF ORBITAL UPDATE .....
 STEP CPU TIME =     0.33 TOTAL CPU TIME =        3.8 (    0.1 MIN)
 TOTAL WALL CLOCK TIME=        6.0 SECONDS, CPU UTILIZATION IS  63.50%

 ITER     TOTAL ENERGY      DEL(E)  LAGRANGIAN ASYMMETRY   SQCDF  MICIT   DAMP
   1     -149.305932834 -0.305932834  0.031128   22   13 2.538E-02  5   0.0000
       ----------START APPROXIMATE SECOND ORDER MCSCF----------
   2     -149.319409183 -0.013476349  0.015333   22   13 2.176E-02  1   0.0000
   3     -149.324735085 -0.005325902  0.007212   22   13 3.496E-02  1   0.0000
   4     -149.326896210 -0.002161125  0.003135   52    7 6.305E-04  1   0.0000
   5     -149.327130498 -0.000234288  0.001644   72   12 1.490E-03  1   0.0000
   6     -149.327272240 -0.000141742  0.001034   14   13 1.632E-03  1   0.0000
   7     -149.327350980 -0.000078741  0.000722   14   13 1.807E-03  1   0.0000
   8     -149.327407087 -0.000056107  0.000597   72   12 5.242E-04  1   0.0000
   9     -149.327428709 -0.000021622  0.000333   72   12 3.531E-05  1   0.0000
  10     -149.327432733 -0.000004024  0.000179   16   11 3.789E-06  1   0.0000
  11     -149.327433116 -0.000000382  0.000034   16   11 4.325E-07  1   0.0000
  12     -149.327433170 -0.000000055  0.000015   37   13 1.157E-07  1   0.0000
  13     -149.327433183 -0.000000012  0.000009   16   11 2.725E-08  1   0.0000
  14     -149.327433185 -0.000000002  0.000003   16   11 2.046E-09  1   0.0000

          --------------------
          LAGRANGIAN CONVERGED
          --------------------

 FINAL MCSCF ENERGY IS     -149.3274331849 AFTER  14 ITERATIONS

 -MCCI- BASED ON OPTIMIZED ORBITALS
 ----------------------------------

 PLEASE NOTE: IF THE ACTIVE ORBITALS ARE CANONICALIZED BELOW,
 THE FOLLOWING CI EXPANSION COEFFICIENTS AND THE DENSITY DO NOT
 CORRESPOND TO THE PRINTED ORBITALS.  THE PRINTED EXPANSIONS MATCH
 THE ORBITALS USED DURING THE LAST ITERATION.  IF YOU WISH TO SEE
 CI EXPANSIONS BASED ON THE CANONICAL (OR NATURAL) ORBITALS, YOU
 MUST RUN A CI CALCULATION WITH THAT ORBITAL CHOICE READ IN $VEC.

 STATE #    1  ENERGY =    -149.485598128

      CSF      COEF    OCCUPANCY (IGNORING CORE)
      ---      ----    --------- --------- -----
        1    0.999990  20
        2    0.000000  11
        3   -0.004430  02

 STATE #    2  ENERGY =    -149.169268242

      CSF      COEF    OCCUPANCY (IGNORING CORE)
      ---      ----    --------- --------- -----
        1    0.000000  20
        2    1.000000  11
        3    0.000000  02

 DENSITY MATRIX OVER ACTIVE MO-S

             1           2

    1    1.4999804
    2    0.0000000   0.5000196

 FORMING THE "STANDARD FOCK OPERATOR" USING INTEGRALS FROM DISK...
    11 FILLED,    2 ACTIVE, AND  101 VIRTUAL ORBITALS  WILL BE CANONICALIZED

          ----------------------
          MCSCF NATURAL ORBITALS
          ----------------------

                      1          2          3          4          5

                  -15.9156   -15.9156   -11.6381    -1.5998    -1.4907

    1  H  1  S    0.000000  -0.000421   0.000550   0.060863   0.000000
    2  H  1  S    0.000000   0.005434   0.014456  -0.008601   0.000000
    3  H  1  X    0.000000   0.000000   0.000000   0.000000   0.000000
    4  H  1  Y    0.000093   0.000000   0.000000   0.000000   0.003134
    5  H  1  Z    0.000000   0.000330   0.000123  -0.013755   0.000000
    6  H  1  S    0.000000   0.000187   0.002598   0.000848   0.000000
    7  H  1  X    0.000000   0.000000   0.000000   0.000000   0.000000
    8  H  1  Y   -0.000797   0.000000   0.000000   0.000000  -0.032191
    9  H  1  Z    0.000000  -0.001398  -0.004254  -0.001272   0.000000
   10  H  2  S   -0.000169   0.000121  -0.000079   0.094895   0.118944
   11  H  2  S   -0.001599   0.001278  -0.001632   0.047372   0.034864
   12  H  2  X    0.000000   0.000000   0.000000   0.000000   0.000000
   13  H  2  Y    0.000020   0.000037  -0.000031  -0.003160  -0.004440
   14  H  2  Z    0.000136  -0.000212   0.000272   0.018510   0.021333
   15  H  2  S    0.000242  -0.000183  -0.000408  -0.003110   0.001871
   16  H  2  X    0.000000   0.000000   0.000000   0.000000   0.000000
   17  H  2  Y    0.000133   0.000125   0.000372  -0.006365  -0.004798
   18  H  2  Z   -0.000591   0.000293  -0.000733   0.014571   0.010461
   19  H  3  S    0.000169   0.000121  -0.000079   0.094895  -0.118944
   20  H  3  S    0.001599   0.001278  -0.001632   0.047372  -0.034864
   21  H  3  X    0.000000   0.000000   0.000000   0.000000   0.000000
   22  H  3  Y    0.000020  -0.000037   0.000031   0.003160  -0.004440
   23  H  3  Z   -0.000136  -0.000212   0.000272   0.018510  -0.021333
   24  H  3  S   -0.000242  -0.000183  -0.000408  -0.003110  -0.001871
   25  H  3  X    0.000000   0.000000   0.000000   0.000000   0.000000
   26  H  3  Y    0.000133  -0.000125  -0.000372   0.006365  -0.004798
   27  H  3  Z    0.000591   0.000292  -0.000733   0.014571  -0.010461
   28  H  4  S   -0.000164   0.000037  -0.000149   0.089610   0.137042
   29  H  4  S   -0.003394  -0.000427  -0.000470   0.006993   0.008606
   30  H  4  X    0.000000   0.000000   0.000000   0.000000   0.000000
   31  H  4  Y   -0.000138   0.000179  -0.000195  -0.017177  -0.020735
   32  H  4  Z   -0.000150   0.000133  -0.000092  -0.006983  -0.012434
   33  H  4  S    0.000913   0.000056  -0.000164  -0.002384  -0.005965
   34  H  4  X    0.000000   0.000000   0.000000   0.000000   0.000000
   35  H  4  Y    0.001037   0.000329   0.000334  -0.001247   0.001305
   36  H  4  Z    0.000340  -0.000521  -0.000281   0.003248  -0.003612
   37  H  5  S    0.000164   0.000037  -0.000149   0.089610  -0.137042
   38  H  5  S    0.003394  -0.000427  -0.000470   0.006993  -0.008606
   39  H  5  X    0.000000   0.000000   0.000000   0.000000   0.000000
   40  H  5  Y   -0.000138  -0.000179   0.000195   0.017177  -0.020735
   41  H  5  Z    0.000150   0.000133  -0.000092  -0.006983   0.012434
   42  H  5  S   -0.000913   0.000056  -0.000164  -0.002384   0.005965
   43  H  5  X    0.000000   0.000000   0.000000   0.000000   0.000000
   44  H  5  Y    0.001037  -0.000329  -0.000334   0.001247   0.001305
   45  H  5  Z   -0.000340  -0.000521  -0.000281   0.003248   0.003612
   46  C  6  S    0.000000   0.000368   1.003467  -0.020616   0.000000
   47  C  6  S    0.000000   0.000495   0.006741   0.252294   0.000000
   48  C  6  S    0.000001   0.015932  -0.004434  -0.024357   0.000000
   49  C  6  X    0.000000   0.000000   0.000000   0.000000   0.000000
   50  C  6  Y   -0.000332   0.000000   0.000000   0.000000   0.219542
   51  C  6  Z    0.000000  -0.000200  -0.001402  -0.091089   0.000000
   52  C  6  X    0.000000   0.000000   0.000000   0.000000   0.000000
   53  C  6  Y   -0.010604   0.000000   0.000000   0.000000  -0.120014
   54  C  6  Z    0.000000  -0.008171  -0.010103   0.062834   0.000000
   55  C  6 XX    0.000000  -0.000013  -0.001158  -0.019725   0.000000
   56  C  6 YY    0.000000  -0.000315   0.001071   0.029146   0.000000
   57  C  6 ZZ    0.000000   0.000328   0.000087  -0.009421   0.000000
   58  C  6 XY    0.000000   0.000000   0.000000   0.000000   0.000000
   59  C  6 XZ    0.000000   0.000000   0.000000   0.000000   0.000000
   60  C  6 YZ   -0.000397   0.000000   0.000000   0.000000  -0.034035
   61  C  6  S    0.000000   0.006164  -0.002458   0.082550   0.000000
   62  C  6  X    0.000000   0.000000   0.000000   0.000000   0.000000
   63  C  6  Y   -0.004463   0.000000   0.000000   0.000000   0.015169
   64  C  6  Z    0.000000  -0.001805  -0.002740  -0.009423   0.000000
   65  C  6 XX    0.000000  -0.002246   0.000573   0.007773   0.000000
   66  C  6 YY    0.000000   0.003764   0.000059   0.005442   0.000000
   67  C  6 ZZ    0.000000  -0.001518  -0.000632  -0.013215   0.000000
   68  C  6 XY    0.000000   0.000000   0.000000   0.000000   0.000000
   69  C  6 XZ    0.000000   0.000000   0.000000   0.000000   0.000000
   70  C  6 YZ    0.004265   0.000000   0.000000   0.000000   0.103959
   71  N  7  S   -0.709020   0.709072   0.000107  -0.010856  -0.011720
   72  N  7  S   -0.003484   0.003461   0.000814   0.262562   0.302002
   73  N  7  S    0.015091  -0.014231  -0.004269   0.222454   0.344872
   74  N  7  X    0.000000   0.000000   0.000000   0.000000   0.000000
   75  N  7  Y    0.000442  -0.000361  -0.000341  -0.067907  -0.012630
   76  N  7  Z   -0.000271   0.000268   0.000134   0.026579   0.024569
   77  N  7  X    0.000000   0.000000   0.000000   0.000000   0.000000
   78  N  7  Y   -0.002837   0.004500   0.004388  -0.085402  -0.068638
   79  N  7  Z    0.001520  -0.002111  -0.001555   0.029199   0.031755
   80  N  7 XX    0.000259  -0.000305   0.000256  -0.007950  -0.008649
   81  N  7 YY   -0.000213   0.000084  -0.000047   0.010301   0.004033
   82  N  7 ZZ   -0.000046   0.000221  -0.000209  -0.002351   0.004616
   83  N  7 XY    0.000000   0.000000   0.000000   0.000000   0.000000
   84  N  7 XZ    0.000000   0.000000   0.000000   0.000000   0.000000
   85  N  7 YZ    0.000002  -0.000046   0.000050  -0.006645  -0.004490
   86  N  7  S    0.011566  -0.005337  -0.001182  -0.057632  -0.010062
   87  N  7  X    0.000000   0.000000   0.000000   0.000000   0.000000
   88  N  7  Y   -0.001975   0.000701   0.000562   0.014211  -0.000060
   89  N  7  Z    0.001535   0.000273   0.000226  -0.005863   0.001463
   90  N  7 XX   -0.000318   0.000841   0.000652   0.006395   0.021296
   91  N  7 YY    0.000414  -0.000868  -0.001539   0.017144  -0.004525
   92  N  7 ZZ   -0.000096   0.000027   0.000888  -0.023539  -0.016771
   93  N  7 XY    0.000000   0.000000   0.000000   0.000000   0.000000
   94  N  7 XZ    0.000000   0.000000   0.000000   0.000000   0.000000
   95  N  7 YZ   -0.000280   0.000900   0.001313  -0.010939  -0.016091
   96  N  8  S    0.709079   0.709013   0.000107  -0.010856   0.011720
   97  N  8  S    0.003484   0.003461   0.000814   0.262562  -0.302002
   98  N  8  S   -0.015092  -0.014230  -0.004269   0.222454  -0.344872
   99  N  8  X    0.000000   0.000000   0.000000   0.000000   0.000000
  100  N  8  Y    0.000442   0.000361   0.000341   0.067907  -0.012630
  101  N  8  Z    0.000271   0.000268   0.000134   0.026579  -0.024569
  102  N  8  X    0.000000   0.000000   0.000000   0.000000   0.000000
  103  N  8  Y   -0.002837  -0.004500  -0.004388   0.085402  -0.068638
  104  N  8  Z   -0.001521  -0.002111  -0.001555   0.029199  -0.031755
  105  N  8 XX   -0.000259  -0.000305   0.000256  -0.007950   0.008649
  106  N  8 YY    0.000213   0.000084  -0.000047   0.010301  -0.004033
  107  N  8 ZZ    0.000046   0.000221  -0.000209  -0.002351  -0.004616
  108  N  8 XY    0.000000   0.000000   0.000000   0.000000   0.000000
  109  N  8 XZ    0.000000   0.000000   0.000000   0.000000   0.000000
  110  N  8 YZ    0.000002   0.000046  -0.000050   0.006645  -0.004490
  111  N  8  S   -0.011567  -0.005337  -0.001182  -0.057632   0.010062
  112  N  8  X    0.000000   0.000000   0.000000   0.000000   0.000000
  113  N  8  Y   -0.001976  -0.000701  -0.000562  -0.014211  -0.000060
  114  N  8  Z   -0.001535   0.000273   0.000226  -0.005863  -0.001463
  115  N  8 XX    0.000318   0.000841   0.000652   0.006395  -0.021296
  116  N  8 YY   -0.000414  -0.000868  -0.001539   0.017144   0.004525
  117  N  8 ZZ    0.000096   0.000027   0.000888  -0.023539   0.016771
  118  N  8 XY    0.000000   0.000000   0.000000   0.000000   0.000000
  119  N  8 XZ    0.000000   0.000000   0.000000   0.000000   0.000000
  120  N  8 YZ   -0.000280  -0.000900  -0.001313   0.010939  -0.016091

                      6          7          8          9         10

                   -1.1707    -1.0656    -1.0351    -0.9547    -0.8744

    1  H  1  S    0.181695   0.180238   0.000000   0.000000   0.348343
    2  H  1  S    0.005232   0.156073   0.000000   0.000000   0.239512
    3  H  1  X    0.000000   0.000000   0.000000   0.000000   0.000000
    4  H  1  Y    0.000000   0.000000   0.006080  -0.006848   0.000000
    5  H  1  Z   -0.019908  -0.016076   0.000000   0.000000  -0.024613
    6  H  1  S    0.008537   0.023646   0.000000   0.000000   0.021974
    7  H  1  X    0.000000   0.000000   0.000000   0.000000   0.000000
    8  H  1  Y    0.000000   0.000000   0.025499   0.025552   0.000000
    9  H  1  Z    0.023797  -0.048019   0.000000   0.000000  -0.052781
   10  H  2  S   -0.174931  -0.121142  -0.243826  -0.145527   0.203194
   11  H  2  S    0.013111  -0.052022  -0.091369  -0.086495   0.133182
   12  H  2  X    0.000000   0.000000   0.000000   0.000000   0.000000
   13  H  2  Y   -0.001888   0.006824  -0.002586   0.007165  -0.002757
   14  H  2  Z   -0.024306  -0.011180  -0.025966  -0.013198   0.016023
   15  H  2  S   -0.002169  -0.000439   0.012330  -0.001315  -0.002565
   16  H  2  X    0.000000   0.000000   0.000000   0.000000   0.000000
   17  H  2  Y    0.004663  -0.012004   0.016604  -0.019844  -0.014187
   18  H  2  Z    0.004384  -0.014848  -0.024936  -0.029279   0.042673
   19  H  3  S   -0.174931  -0.121142   0.243826   0.145527   0.203194
   20  H  3  S    0.013111  -0.052022   0.091369   0.086495   0.133182
   21  H  3  X    0.000000   0.000000   0.000000   0.000000   0.000000
   22  H  3  Y    0.001888  -0.006824  -0.002586   0.007165   0.002757
   23  H  3  Z   -0.024306  -0.011180   0.025966   0.013198   0.016023
   24  H  3  S   -0.002169  -0.000439  -0.012330   0.001315  -0.002565
   25  H  3  X    0.000000   0.000000   0.000000   0.000000   0.000000
   26  H  3  Y   -0.004663   0.012004   0.016604  -0.019844   0.014187
   27  H  3  Z    0.004384  -0.014848   0.024936   0.029279   0.042673
   28  H  4  S   -0.135724   0.228313  -0.024236   0.289011  -0.111234
   29  H  4  S   -0.010217   0.076243   0.003738   0.139857  -0.102895
   30  H  4  X    0.000000   0.000000   0.000000   0.000000   0.000000
   31  H  4  Y    0.013302  -0.019801  -0.000963  -0.021626   0.012608
   32  H  4  Z    0.013868  -0.012463   0.006786  -0.014325  -0.001769
   33  H  4  S    0.002988  -0.008633   0.002595  -0.003431  -0.003428
   34  H  4  X    0.000000   0.000000   0.000000   0.000000   0.000000
   35  H  4  Y    0.009715  -0.018063   0.014593  -0.034407   0.024914
   36  H  4  Z   -0.004236  -0.016789  -0.020219  -0.020411   0.018988
   37  H  5  S   -0.135724   0.228313   0.024236  -0.289011  -0.111234
   38  H  5  S   -0.010217   0.076243  -0.003738  -0.139857  -0.102895
   39  H  5  X    0.000000   0.000000   0.000000   0.000000   0.000000
   40  H  5  Y   -0.013302   0.019801  -0.000963  -0.021626  -0.012608
   41  H  5  Z    0.013868  -0.012463  -0.006786   0.014325  -0.001769
   42  H  5  S    0.002988  -0.008633  -0.002595   0.003431  -0.003428
   43  H  5  X    0.000000   0.000000   0.000000   0.000000   0.000000
   44  H  5  Y   -0.009715   0.018063   0.014593  -0.034407  -0.024914
   45  H  5  Z   -0.004236  -0.016789   0.020219   0.020411   0.018988
   46  C  6  S    0.002120  -0.004232   0.000000   0.000000  -0.005460
   47  C  6  S    0.312876   0.002205   0.000000   0.000000   0.052041
   48  C  6  S    0.225639  -0.104604   0.000000   0.000000  -0.030588
   49  C  6  X    0.000000   0.000000   0.000000   0.000000   0.000000
   50  C  6  Y    0.000000   0.000000   0.342153  -0.183845   0.000000
   51  C  6  Z    0.045940   0.276184   0.000000   0.000000   0.374374
   52  C  6  X    0.000000   0.000000   0.000000   0.000000   0.000000
   53  C  6  Y    0.000000   0.000000   0.105182  -0.121414   0.000000
   54  C  6  Z    0.023626  -0.050201   0.000000   0.000000   0.103557
   55  C  6 XX   -0.007143   0.002661   0.000000   0.000000   0.005708
   56  C  6 YY    0.003714   0.008332   0.000000   0.000000  -0.047243
   57  C  6 ZZ    0.003429  -0.010993   0.000000   0.000000   0.041535
   58  C  6 XY    0.000000   0.000000   0.000000   0.000000   0.000000
   59  C  6 XZ    0.000000   0.000000   0.000000   0.000000   0.000000
   60  C  6 YZ    0.000000   0.000000  -0.022032   0.041213   0.000000
   61  C  6  S    0.038730  -0.005652   0.000000   0.000000  -0.015543
   62  C  6  X    0.000000   0.000000   0.000000   0.000000   0.000000
   63  C  6  Y    0.000000   0.000000  -0.005289  -0.003650   0.000000
   64  C  6  Z   -0.023797  -0.021049   0.000000   0.000000  -0.014896
   65  C  6 XX    0.014893   0.002953   0.000000   0.000000   0.000986
   66  C  6 YY    0.026496  -0.015319   0.000000   0.000000   0.044845
   67  C  6 ZZ   -0.041388   0.012367   0.000000   0.000000  -0.045831
   68  C  6 XY    0.000000   0.000000   0.000000   0.000000   0.000000
   69  C  6 XZ    0.000000   0.000000   0.000000   0.000000   0.000000
   70  C  6 YZ    0.000000   0.000000  -0.064777  -0.025268   0.000000
   71  N  7  S    0.000022  -0.002159   0.000904   0.001250  -0.000940
   72  N  7  S   -0.133069   0.011585  -0.027235  -0.016580  -0.036619
   73  N  7  S   -0.119357   0.009134  -0.060826  -0.017983  -0.056515
   74  N  7  X    0.000000   0.000000   0.000000   0.000000   0.000000
   75  N  7  Y   -0.209983   0.228918  -0.197929   0.303827   0.047641
   76  N  7  Z    0.140707   0.199376   0.289012   0.198816  -0.249350
   77  N  7  X    0.000000   0.000000   0.000000   0.000000   0.000000
   78  N  7  Y   -0.078355   0.077806  -0.049846   0.116995   0.022761
   79  N  7  Z    0.039851   0.081767   0.105617   0.075806  -0.087493
   80  N  7 XX   -0.000085  -0.000030  -0.000241   0.000039  -0.000276
   81  N  7 YY    0.007389  -0.001556   0.008886   0.004602  -0.017625
   82  N  7 ZZ   -0.007303   0.001586  -0.008645  -0.004641   0.017901
   83  N  7 XY    0.000000   0.000000   0.000000   0.000000   0.000000
   84  N  7 XZ    0.000000   0.000000   0.000000   0.000000   0.000000
   85  N  7 YZ   -0.013351   0.007802  -0.011910   0.016415  -0.008249
   86  N  7  S   -0.060674  -0.011005   0.034543  -0.015530  -0.005675
   87  N  7  X    0.000000   0.000000   0.000000   0.000000   0.000000
   88  N  7  Y   -0.001641   0.015179  -0.029981   0.018183   0.012173
   89  N  7  Z    0.007303   0.003842   0.013567  -0.005043  -0.006295
   90  N  7 XX   -0.013947  -0.001187  -0.009493   0.004827  -0.005326
   91  N  7 YY   -0.003173  -0.027729  -0.038085  -0.031619   0.020565
   92  N  7 ZZ    0.017120   0.028916   0.047578   0.026792  -0.015239
   93  N  7 XY    0.000000   0.000000   0.000000   0.000000   0.000000
   94  N  7 XZ    0.000000   0.000000   0.000000   0.000000   0.000000
   95  N  7 YZ    0.009846  -0.039655   0.002261  -0.044331   0.003195
   96  N  8  S    0.000022  -0.002159  -0.000904  -0.001250  -0.000940
   97  N  8  S   -0.133069   0.011585   0.027235   0.016580  -0.036619
   98  N  8  S   -0.119357   0.009134   0.060826   0.017983  -0.056515
   99  N  8  X    0.000000   0.000000   0.000000   0.000000   0.000000
  100  N  8  Y    0.209983  -0.228918  -0.197929   0.303827  -0.047641
  101  N  8  Z    0.140707   0.199376  -0.289012  -0.198816  -0.249350
  102  N  8  X    0.000000   0.000000   0.000000   0.000000   0.000000
  103  N  8  Y    0.078355  -0.077806  -0.049846   0.116995  -0.022761
  104  N  8  Z    0.039851   0.081767  -0.105617  -0.075806  -0.087493
  105  N  8 XX   -0.000085  -0.000030   0.000241  -0.000039  -0.000276
  106  N  8 YY    0.007389  -0.001556  -0.008886  -0.004602  -0.017625
  107  N  8 ZZ   -0.007303   0.001586   0.008645   0.004641   0.017901
  108  N  8 XY    0.000000   0.000000   0.000000   0.000000   0.000000
  109  N  8 XZ    0.000000   0.000000   0.000000   0.000000   0.000000
  110  N  8 YZ    0.013351  -0.007802  -0.011910   0.016415   0.008249
  111  N  8  S   -0.060674  -0.011005  -0.034543   0.015530  -0.005675
  112  N  8  X    0.000000   0.000000   0.000000   0.000000   0.000000
  113  N  8  Y    0.001641  -0.015179  -0.029981   0.018183  -0.012173
  114  N  8  Z    0.007303   0.003842  -0.013567   0.005043  -0.006295
  115  N  8 XX   -0.013947  -0.001187   0.009493  -0.004827  -0.005326
  116  N  8 YY   -0.003173  -0.027729   0.038085   0.031619   0.020565
  117  N  8 ZZ    0.017120   0.028916  -0.047578  -0.026792  -0.015239
  118  N  8 XY    0.000000   0.000000   0.000000   0.000000   0.000000
  119  N  8 XZ    0.000000   0.000000   0.000000   0.000000   0.000000
  120  N  8 YZ   -0.009846   0.039655   0.002261  -0.044331  -0.003195

                     11         12         13

                   -0.8274     1.5000     0.5000

    1  H  1  S    0.000000   0.000000  -0.033672
    2  H  1  S    0.000000   0.000000   0.093130
    3  H  1  X    0.010749   0.000000   0.000000
    4  H  1  Y    0.000000   0.000000   0.000000
    5  H  1  Z    0.000000   0.000000   0.007549
    6  H  1  S    0.000000   0.000000   0.221922
    7  H  1  X   -0.015061   0.000000   0.000000
    8  H  1  Y    0.000000   0.000000   0.000000
    9  H  1  Z    0.000000   0.000000  -0.028293
   10  H  2  S    0.000000   0.000000   0.008289
   11  H  2  S    0.000000   0.000000   0.101271
   12  H  2  X    0.012220   0.017390   0.000000
   13  H  2  Y    0.000000   0.000000  -0.006229
   14  H  2  Z    0.000000   0.000000  -0.019120
   15  H  2  S    0.000000   0.000000   0.228156
   16  H  2  X    0.001208  -0.002526   0.000000
   17  H  2  Y    0.000000   0.000000  -0.063919
   18  H  2  Z    0.000000   0.000000  -0.075763
   19  H  3  S    0.000000   0.000000   0.008289
   20  H  3  S    0.000000   0.000000   0.101271
   21  H  3  X    0.012220  -0.017390   0.000000
   22  H  3  Y    0.000000   0.000000   0.006229
   23  H  3  Z    0.000000   0.000000  -0.019120
   24  H  3  S    0.000000   0.000000   0.228156
   25  H  3  X    0.001208   0.002526   0.000000
   26  H  3  Y    0.000000   0.000000   0.063919
   27  H  3  Z    0.000000   0.000000  -0.075763
   28  H  4  S    0.000000   0.000000   0.069199
   29  H  4  S    0.000000   0.000000   0.162744
   30  H  4  X    0.013406   0.017783   0.000000
   31  H  4  Y    0.000000   0.000000   0.005250
   32  H  4  Z    0.000000   0.000000   0.009285
   33  H  4  S    0.000000   0.000000   0.078387
   34  H  4  X   -0.002974   0.004393   0.000000
   35  H  4  Y    0.000000   0.000000   0.023059
   36  H  4  Z    0.000000   0.000000   0.028075
   37  H  5  S    0.000000   0.000000   0.069199
   38  H  5  S    0.000000   0.000000   0.162744
   39  H  5  X    0.013406  -0.017783   0.000000
   40  H  5  Y    0.000000   0.000000  -0.005251
   41  H  5  Z    0.000000   0.000000   0.009285
   42  H  5  S    0.000000   0.000000   0.078386
   43  H  5  X   -0.002974  -0.004393   0.000000
   44  H  5  Y    0.000000   0.000000  -0.023059
   45  H  5  Z    0.000000   0.000000   0.028075
   46  C  6  S    0.000000   0.000000  -0.009346
   47  C  6  S    0.000000   0.000000  -0.042496
   48  C  6  S    0.000000   0.000000  -0.147806
   49  C  6  X    0.341691   0.000000   0.000000
   50  C  6  Y    0.000000   0.000000   0.000000
   51  C  6  Z    0.000000   0.000000  -0.072376
   52  C  6  X    0.103878   0.000000   0.000000
   53  C  6  Y    0.000000   0.000000   0.000000
   54  C  6  Z    0.000000   0.000000  -0.168708
   55  C  6 XX    0.000000   0.000000   0.011161
   56  C  6 YY    0.000000   0.000000  -0.011608
   57  C  6 ZZ    0.000000   0.000000   0.000447
   58  C  6 XY    0.000000   0.062381   0.000000
   59  C  6 XZ   -0.027180   0.000000   0.000000
   60  C  6 YZ    0.000000   0.000000   0.000000
   61  C  6  S    0.000000   0.000000   0.415708
   62  C  6  X   -0.003221   0.000000   0.000000
   63  C  6  Y    0.000000   0.000000   0.000000
   64  C  6  Z    0.000000   0.000000  -0.213566
   65  C  6 XX    0.000000   0.000000  -0.005517
   66  C  6 YY    0.000000   0.000000  -0.003580
   67  C  6 ZZ    0.000000   0.000000   0.009098
   68  C  6 XY    0.000000  -0.004381   0.000000
   69  C  6 XZ    0.032958   0.000000   0.000000
   70  C  6 YZ    0.000000   0.000000   0.000000
   71  N  7  S    0.000000   0.000000  -0.009030
   72  N  7  S    0.000000   0.000000  -0.131510
   73  N  7  S    0.000000   0.000000  -0.340799
   74  N  7  X    0.333696   0.435581   0.000000
   75  N  7  Y    0.000000   0.000000  -0.038196
   76  N  7  Z    0.000000   0.000000   0.081305
   77  N  7  X    0.253766   0.346696   0.000000
   78  N  7  Y    0.000000   0.000000  -0.003392
   79  N  7  Z    0.000000   0.000000   0.068508
   80  N  7 XX    0.000000   0.000000   0.005554
   81  N  7 YY    0.000000   0.000000  -0.002587
   82  N  7 ZZ    0.000000   0.000000  -0.002967
   83  N  7 XY   -0.016284  -0.005428   0.000000
   84  N  7 XZ    0.009038   0.003744   0.000000
   85  N  7 YZ    0.000000   0.000000   0.012658
   86  N  7  S    0.000000   0.000000  -0.178359
   87  N  7  X    0.018448   0.042234   0.000000
   88  N  7  Y    0.000000   0.000000  -0.029247
   89  N  7  Z    0.000000   0.000000  -0.031076
   90  N  7 XX    0.000000   0.000000  -0.004061
   91  N  7 YY    0.000000   0.000000  -0.001840
   92  N  7 ZZ    0.000000   0.000000   0.005901
   93  N  7 XY   -0.028334  -0.009202   0.000000
   94  N  7 XZ    0.008797   0.006079   0.000000
   95  N  7 YZ    0.000000   0.000000  -0.000558
   96  N  8  S    0.000000   0.000000  -0.009030
   97  N  8  S    0.000000   0.000000  -0.131510
   98  N  8  S    0.000000   0.000000  -0.340799
   99  N  8  X    0.333696  -0.435581   0.000000
  100  N  8  Y    0.000000   0.000000   0.038196
  101  N  8  Z    0.000000   0.000000   0.081305
  102  N  8  X    0.253766  -0.346696   0.000000
  103  N  8  Y    0.000000   0.000000   0.003392
  104  N  8  Z    0.000000   0.000000   0.068508
  105  N  8 XX    0.000000   0.000000   0.005554
  106  N  8 YY    0.000000   0.000000  -0.002587
  107  N  8 ZZ    0.000000   0.000000  -0.002967
  108  N  8 XY    0.016284  -0.005428   0.000000
  109  N  8 XZ    0.009038  -0.003744   0.000000
  110  N  8 YZ    0.000000   0.000000  -0.012658
  111  N  8  S    0.000000   0.000000  -0.178359
  112  N  8  X    0.018448  -0.042234   0.000000
  113  N  8  Y    0.000000   0.000000   0.029246
  114  N  8  Z    0.000000   0.000000  -0.031076
  115  N  8 XX    0.000000   0.000000  -0.004061
  116  N  8 YY    0.000000   0.000000  -0.001840
  117  N  8 ZZ    0.000000   0.000000   0.005901
  118  N  8 XY    0.028334  -0.009202   0.000000
  119  N  8 XZ    0.008797  -0.006079   0.000000
  120  N  8 YZ    0.000000   0.000000   0.000558

          ------------------------
          MCSCF OPTIMIZED ORBITALS
          ------------------------

                      1          2          3          4          5
                  -15.9156   -15.9156   -11.6381    -1.5998    -1.4907
                     A          A          A          A          A   
    1  H  1  S    0.000000  -0.000421   0.000550   0.060863   0.000000
    2  H  1  S    0.000000   0.005434   0.014456  -0.008601   0.000000
    3  H  1  X    0.000000   0.000000   0.000000   0.000000   0.000000
    4  H  1  Y    0.000093   0.000000   0.000000   0.000000   0.003134
    5  H  1  Z    0.000000   0.000330   0.000123  -0.013755   0.000000
    6  H  1  S    0.000000   0.000187   0.002598   0.000848   0.000000
    7  H  1  X    0.000000   0.000000   0.000000   0.000000   0.000000
    8  H  1  Y   -0.000797   0.000000   0.000000   0.000000  -0.032191
    9  H  1  Z    0.000000  -0.001398  -0.004254  -0.001272   0.000000
   10  H  2  S   -0.000169   0.000121  -0.000079   0.094895   0.118944
   11  H  2  S   -0.001599   0.001278  -0.001632   0.047372   0.034864
   12  H  2  X    0.000000   0.000000   0.000000   0.000000   0.000000
   13  H  2  Y    0.000020   0.000037  -0.000031  -0.003160  -0.004440
   14  H  2  Z    0.000136  -0.000212   0.000272   0.018510   0.021333
   15  H  2  S    0.000242  -0.000183  -0.000408  -0.003110   0.001871
   16  H  2  X    0.000000   0.000000   0.000000   0.000000   0.000000
   17  H  2  Y    0.000133   0.000125   0.000372  -0.006365  -0.004798
   18  H  2  Z   -0.000591   0.000293  -0.000733   0.014571   0.010461
   19  H  3  S    0.000169   0.000121  -0.000079   0.094895  -0.118944
   20  H  3  S    0.001599   0.001278  -0.001632   0.047372  -0.034864
   21  H  3  X    0.000000   0.000000   0.000000   0.000000   0.000000
   22  H  3  Y    0.000020  -0.000037   0.000031   0.003160  -0.004440
   23  H  3  Z   -0.000136  -0.000212   0.000272   0.018510  -0.021333
   24  H  3  S   -0.000242  -0.000183  -0.000408  -0.003110  -0.001871
   25  H  3  X    0.000000   0.000000   0.000000   0.000000   0.000000
   26  H  3  Y    0.000133  -0.000125  -0.000372   0.006365  -0.004798
   27  H  3  Z    0.000591   0.000292  -0.000733   0.014571  -0.010461
   28  H  4  S   -0.000164   0.000037  -0.000149   0.089610   0.137042
   29  H  4  S   -0.003394  -0.000427  -0.000470   0.006993   0.008606
   30  H  4  X    0.000000   0.000000   0.000000   0.000000   0.000000
   31  H  4  Y   -0.000138   0.000179  -0.000195  -0.017177  -0.020735
   32  H  4  Z   -0.000150   0.000133  -0.000092  -0.006983  -0.012434
   33  H  4  S    0.000913   0.000056  -0.000164  -0.002384  -0.005965
   34  H  4  X    0.000000   0.000000   0.000000   0.000000   0.000000
   35  H  4  Y    0.001037   0.000329   0.000334  -0.001247   0.001305
   36  H  4  Z    0.000340  -0.000521  -0.000281   0.003248  -0.003612
   37  H  5  S    0.000164   0.000037  -0.000149   0.089610  -0.137042
   38  H  5  S    0.003394  -0.000427  -0.000470   0.006993  -0.008606
   39  H  5  X    0.000000   0.000000   0.000000   0.000000   0.000000
   40  H  5  Y   -0.000138  -0.000179   0.000195   0.017177  -0.020735
   41  H  5  Z    0.000150   0.000133  -0.000092  -0.006983   0.012434
   42  H  5  S   -0.000913   0.000056  -0.000164  -0.002384   0.005965
   43  H  5  X    0.000000   0.000000   0.000000   0.000000   0.000000
   44  H  5  Y    0.001037  -0.000329  -0.000334   0.001247   0.001305
   45  H  5  Z   -0.000340  -0.000521  -0.000281   0.003248   0.003612
   46  C  6  S    0.000000   0.000368   1.003467  -0.020616   0.000000
   47  C  6  S    0.000000   0.000495   0.006741   0.252294   0.000000
   48  C  6  S    0.000001   0.015932  -0.004434  -0.024357   0.000000
   49  C  6  X    0.000000   0.000000   0.000000   0.000000   0.000000
   50  C  6  Y   -0.000332   0.000000   0.000000   0.000000   0.219542
   51  C  6  Z    0.000000  -0.000200  -0.001402  -0.091089   0.000000
   52  C  6  X    0.000000   0.000000   0.000000   0.000000   0.000000
   53  C  6  Y   -0.010604   0.000000   0.000000   0.000000  -0.120014
   54  C  6  Z    0.000000  -0.008171  -0.010103   0.062834   0.000000
   55  C  6 XX    0.000000  -0.000013  -0.001158  -0.019725   0.000000
   56  C  6 YY    0.000000  -0.000315   0.001071   0.029146   0.000000
   57  C  6 ZZ    0.000000   0.000328   0.000087  -0.009421   0.000000
   58  C  6 XY    0.000000   0.000000   0.000000   0.000000   0.000000
   59  C  6 XZ    0.000000   0.000000   0.000000   0.000000   0.000000
   60  C  6 YZ   -0.000397   0.000000   0.000000   0.000000  -0.034035
   61  C  6  S    0.000000   0.006164  -0.002458   0.082550   0.000000
   62  C  6  X    0.000000   0.000000   0.000000   0.000000   0.000000
   63  C  6  Y   -0.004463   0.000000   0.000000   0.000000   0.015169
   64  C  6  Z    0.000000  -0.001805  -0.002740  -0.009423   0.000000
   65  C  6 XX    0.000000  -0.002246   0.000573   0.007773   0.000000
   66  C  6 YY    0.000000   0.003764   0.000059   0.005442   0.000000
   67  C  6 ZZ    0.000000  -0.001518  -0.000632  -0.013215   0.000000
   68  C  6 XY    0.000000   0.000000   0.000000   0.000000   0.000000
   69  C  6 XZ    0.000000   0.000000   0.000000   0.000000   0.000000
   70  C  6 YZ    0.004265   0.000000   0.000000   0.000000   0.103959
   71  N  7  S   -0.709020   0.709072   0.000107  -0.010856  -0.011720
   72  N  7  S   -0.003484   0.003461   0.000814   0.262562   0.302002
   73  N  7  S    0.015091  -0.014231  -0.004269   0.222454   0.344872
   74  N  7  X    0.000000   0.000000   0.000000   0.000000   0.000000
   75  N  7  Y    0.000442  -0.000361  -0.000341  -0.067907  -0.012630
   76  N  7  Z   -0.000271   0.000268   0.000134   0.026579   0.024569
   77  N  7  X    0.000000   0.000000   0.000000   0.000000   0.000000
   78  N  7  Y   -0.002837   0.004500   0.004388  -0.085402  -0.068638
   79  N  7  Z    0.001520  -0.002111  -0.001555   0.029199   0.031755
   80  N  7 XX    0.000259  -0.000305   0.000256  -0.007950  -0.008649
   81  N  7 YY   -0.000213   0.000084  -0.000047   0.010301   0.004033
   82  N  7 ZZ   -0.000046   0.000221  -0.000209  -0.002351   0.004616
   83  N  7 XY    0.000000   0.000000   0.000000   0.000000   0.000000
   84  N  7 XZ    0.000000   0.000000   0.000000   0.000000   0.000000
   85  N  7 YZ    0.000002  -0.000046   0.000050  -0.006645  -0.004490
   86  N  7  S    0.011566  -0.005337  -0.001182  -0.057632  -0.010062
   87  N  7  X    0.000000   0.000000   0.000000   0.000000   0.000000
   88  N  7  Y   -0.001975   0.000701   0.000562   0.014211  -0.000060
   89  N  7  Z    0.001535   0.000273   0.000226  -0.005863   0.001463
   90  N  7 XX   -0.000318   0.000841   0.000652   0.006395   0.021296
   91  N  7 YY    0.000414  -0.000868  -0.001539   0.017144  -0.004525
   92  N  7 ZZ   -0.000096   0.000027   0.000888  -0.023539  -0.016771
   93  N  7 XY    0.000000   0.000000   0.000000   0.000000   0.000000
   94  N  7 XZ    0.000000   0.000000   0.000000   0.000000   0.000000
   95  N  7 YZ   -0.000280   0.000900   0.001313  -0.010939  -0.016091
   96  N  8  S    0.709079   0.709013   0.000107  -0.010856   0.011720
   97  N  8  S    0.003484   0.003461   0.000814   0.262562  -0.302002
   98  N  8  S   -0.015092  -0.014230  -0.004269   0.222454  -0.344872
   99  N  8  X    0.000000   0.000000   0.000000   0.000000   0.000000
  100  N  8  Y    0.000442   0.000361   0.000341   0.067907  -0.012630
  101  N  8  Z    0.000271   0.000268   0.000134   0.026579  -0.024569
  102  N  8  X    0.000000   0.000000   0.000000   0.000000   0.000000
  103  N  8  Y   -0.002837  -0.004500  -0.004388   0.085402  -0.068638
  104  N  8  Z   -0.001521  -0.002111  -0.001555   0.029199  -0.031755
  105  N  8 XX   -0.000259  -0.000305   0.000256  -0.007950   0.008649
  106  N  8 YY    0.000213   0.000084  -0.000047   0.010301  -0.004033
  107  N  8 ZZ    0.000046   0.000221  -0.000209  -0.002351  -0.004616
  108  N  8 XY    0.000000   0.000000   0.000000   0.000000   0.000000
  109  N  8 XZ    0.000000   0.000000   0.000000   0.000000   0.000000
  110  N  8 YZ    0.000002   0.000046  -0.000050   0.006645  -0.004490
  111  N  8  S   -0.011567  -0.005337  -0.001182  -0.057632   0.010062
  112  N  8  X    0.000000   0.000000   0.000000   0.000000   0.000000
  113  N  8  Y   -0.001976  -0.000701  -0.000562  -0.014211  -0.000060
  114  N  8  Z   -0.001535   0.000273   0.000226  -0.005863  -0.001463
  115  N  8 XX    0.000318   0.000841   0.000652   0.006395  -0.021296
  116  N  8 YY   -0.000414  -0.000868  -0.001539   0.017144   0.004525
  117  N  8 ZZ    0.000096   0.000027   0.000888  -0.023539   0.016771
  118  N  8 XY    0.000000   0.000000   0.000000   0.000000   0.000000
  119  N  8 XZ    0.000000   0.000000   0.000000   0.000000   0.000000
  120  N  8 YZ   -0.000280  -0.000900  -0.001313   0.010939  -0.016091

                      6          7          8          9         10
                   -1.1707    -1.0656    -1.0351    -0.9547    -0.8744
                     A          A          A          A          A   
    1  H  1  S    0.181695   0.180238   0.000000   0.000000   0.348343
    2  H  1  S    0.005232   0.156073   0.000000   0.000000   0.239512
    3  H  1  X    0.000000   0.000000   0.000000   0.000000   0.000000
    4  H  1  Y    0.000000   0.000000   0.006080  -0.006848   0.000000
    5  H  1  Z   -0.019908  -0.016076   0.000000   0.000000  -0.024613
    6  H  1  S    0.008537   0.023646   0.000000   0.000000   0.021974
    7  H  1  X    0.000000   0.000000   0.000000   0.000000   0.000000
    8  H  1  Y    0.000000   0.000000   0.025499   0.025552   0.000000
    9  H  1  Z    0.023797  -0.048019   0.000000   0.000000  -0.052781
   10  H  2  S   -0.174931  -0.121142  -0.243826  -0.145527   0.203194
   11  H  2  S    0.013111  -0.052022  -0.091369  -0.086495   0.133182
   12  H  2  X    0.000000   0.000000   0.000000   0.000000   0.000000
   13  H  2  Y   -0.001888   0.006824  -0.002586   0.007165  -0.002757
   14  H  2  Z   -0.024306  -0.011180  -0.025966  -0.013198   0.016023
   15  H  2  S   -0.002169  -0.000439   0.012330  -0.001315  -0.002565
   16  H  2  X    0.000000   0.000000   0.000000   0.000000   0.000000
   17  H  2  Y    0.004663  -0.012004   0.016604  -0.019844  -0.014187
   18  H  2  Z    0.004384  -0.014848  -0.024936  -0.029279   0.042673
   19  H  3  S   -0.174931  -0.121142   0.243826   0.145527   0.203194
   20  H  3  S    0.013111  -0.052022   0.091369   0.086495   0.133182
   21  H  3  X    0.000000   0.000000   0.000000   0.000000   0.000000
   22  H  3  Y    0.001888  -0.006824  -0.002586   0.007165   0.002757
   23  H  3  Z   -0.024306  -0.011180   0.025966   0.013198   0.016023
   24  H  3  S   -0.002169  -0.000439  -0.012330   0.001315  -0.002565
   25  H  3  X    0.000000   0.000000   0.000000   0.000000   0.000000
   26  H  3  Y   -0.004663   0.012004   0.016604  -0.019844   0.014187
   27  H  3  Z    0.004384  -0.014848   0.024936   0.029279   0.042673
   28  H  4  S   -0.135724   0.228313  -0.024236   0.289011  -0.111234
   29  H  4  S   -0.010217   0.076243   0.003738   0.139857  -0.102895
   30  H  4  X    0.000000   0.000000   0.000000   0.000000   0.000000
   31  H  4  Y    0.013302  -0.019801  -0.000963  -0.021626   0.012608
   32  H  4  Z    0.013868  -0.012463   0.006786  -0.014325  -0.001769
   33  H  4  S    0.002988  -0.008633   0.002595  -0.003431  -0.003428
   34  H  4  X    0.000000   0.000000   0.000000   0.000000   0.000000
   35  H  4  Y    0.009715  -0.018063   0.014593  -0.034407   0.024914
   36  H  4  Z   -0.004236  -0.016789  -0.020219  -0.020411   0.018988
   37  H  5  S   -0.135724   0.228313   0.024236  -0.289011  -0.111234
   38  H  5  S   -0.010217   0.076243  -0.003738  -0.139857  -0.102895
   39  H  5  X    0.000000   0.000000   0.000000   0.000000   0.000000
   40  H  5  Y   -0.013302   0.019801  -0.000963  -0.021626  -0.012608
   41  H  5  Z    0.013868  -0.012463  -0.006786   0.014325  -0.001769
   42  H  5  S    0.002988  -0.008633  -0.002595   0.003431  -0.003428
   43  H  5  X    0.000000   0.000000   0.000000   0.000000   0.000000
   44  H  5  Y   -0.009715   0.018063   0.014593  -0.034407  -0.024914
   45  H  5  Z   -0.004236  -0.016789   0.020219   0.020411   0.018988
   46  C  6  S    0.002120  -0.004232   0.000000   0.000000  -0.005460
   47  C  6  S    0.312876   0.002205   0.000000   0.000000   0.052041
   48  C  6  S    0.225639  -0.104604   0.000000   0.000000  -0.030588
   49  C  6  X    0.000000   0.000000   0.000000   0.000000   0.000000
   50  C  6  Y    0.000000   0.000000   0.342153  -0.183845   0.000000
   51  C  6  Z    0.045940   0.276184   0.000000   0.000000   0.374374
   52  C  6  X    0.000000   0.000000   0.000000   0.000000   0.000000
   53  C  6  Y    0.000000   0.000000   0.105182  -0.121414   0.000000
   54  C  6  Z    0.023626  -0.050201   0.000000   0.000000   0.103557
   55  C  6 XX   -0.007143   0.002661   0.000000   0.000000   0.005708
   56  C  6 YY    0.003714   0.008332   0.000000   0.000000  -0.047243
   57  C  6 ZZ    0.003429  -0.010993   0.000000   0.000000   0.041535
   58  C  6 XY    0.000000   0.000000   0.000000   0.000000   0.000000
   59  C  6 XZ    0.000000   0.000000   0.000000   0.000000   0.000000
   60  C  6 YZ    0.000000   0.000000  -0.022032   0.041213   0.000000
   61  C  6  S    0.038730  -0.005652   0.000000   0.000000  -0.015543
   62  C  6  X    0.000000   0.000000   0.000000   0.000000   0.000000
   63  C  6  Y    0.000000   0.000000  -0.005289  -0.003650   0.000000
   64  C  6  Z   -0.023797  -0.021049   0.000000   0.000000  -0.014896
   65  C  6 XX    0.014893   0.002953   0.000000   0.000000   0.000986
   66  C  6 YY    0.026496  -0.015319   0.000000   0.000000   0.044845
   67  C  6 ZZ   -0.041388   0.012367   0.000000   0.000000  -0.045831
   68  C  6 XY    0.000000   0.000000   0.000000   0.000000   0.000000
   69  C  6 XZ    0.000000   0.000000   0.000000   0.000000   0.000000
   70  C  6 YZ    0.000000   0.000000  -0.064777  -0.025268   0.000000
   71  N  7  S    0.000022  -0.002159   0.000904   0.001250  -0.000940
   72  N  7  S   -0.133069   0.011585  -0.027235  -0.016580  -0.036619
   73  N  7  S   -0.119357   0.009134  -0.060826  -0.017983  -0.056515
   74  N  7  X    0.000000   0.000000   0.000000   0.000000   0.000000
   75  N  7  Y   -0.209983   0.228918  -0.197929   0.303827   0.047641
   76  N  7  Z    0.140707   0.199376   0.289012   0.198816  -0.249350
   77  N  7  X    0.000000   0.000000   0.000000   0.000000   0.000000
   78  N  7  Y   -0.078355   0.077806  -0.049846   0.116995   0.022761
   79  N  7  Z    0.039851   0.081767   0.105617   0.075806  -0.087493
   80  N  7 XX   -0.000085  -0.000030  -0.000241   0.000039  -0.000276
   81  N  7 YY    0.007389  -0.001556   0.008886   0.004602  -0.017625
   82  N  7 ZZ   -0.007303   0.001586  -0.008645  -0.004641   0.017901
   83  N  7 XY    0.000000   0.000000   0.000000   0.000000   0.000000
   84  N  7 XZ    0.000000   0.000000   0.000000   0.000000   0.000000
   85  N  7 YZ   -0.013351   0.007802  -0.011910   0.016415  -0.008249
   86  N  7  S   -0.060674  -0.011005   0.034543  -0.015530  -0.005675
   87  N  7  X    0.000000   0.000000   0.000000   0.000000   0.000000
   88  N  7  Y   -0.001641   0.015179  -0.029981   0.018183   0.012173
   89  N  7  Z    0.007303   0.003842   0.013567  -0.005043  -0.006295
   90  N  7 XX   -0.013947  -0.001187  -0.009493   0.004827  -0.005326
   91  N  7 YY   -0.003173  -0.027729  -0.038085  -0.031619   0.020565
   92  N  7 ZZ    0.017120   0.028916   0.047578   0.026792  -0.015239
   93  N  7 XY    0.000000   0.000000   0.000000   0.000000   0.000000
   94  N  7 XZ    0.000000   0.000000   0.000000   0.000000   0.000000
   95  N  7 YZ    0.009846  -0.039655   0.002261  -0.044331   0.003195
   96  N  8  S    0.000022  -0.002159  -0.000904  -0.001250  -0.000940
   97  N  8  S   -0.133069   0.011585   0.027235   0.016580  -0.036619
   98  N  8  S   -0.119357   0.009134   0.060826   0.017983  -0.056515
   99  N  8  X    0.000000   0.000000   0.000000   0.000000   0.000000
  100  N  8  Y    0.209983  -0.228918  -0.197929   0.303827  -0.047641
  101  N  8  Z    0.140707   0.199376  -0.289012  -0.198816  -0.249350
  102  N  8  X    0.000000   0.000000   0.000000   0.000000   0.000000
  103  N  8  Y    0.078355  -0.077806  -0.049846   0.116995  -0.022761
  104  N  8  Z    0.039851   0.081767  -0.105617  -0.075806  -0.087493
  105  N  8 XX   -0.000085  -0.000030   0.000241  -0.000039  -0.000276
  106  N  8 YY    0.007389  -0.001556  -0.008886  -0.004602  -0.017625
  107  N  8 ZZ   -0.007303   0.001586   0.008645   0.004641   0.017901
  108  N  8 XY    0.000000   0.000000   0.000000   0.000000   0.000000
  109  N  8 XZ    0.000000   0.000000   0.000000   0.000000   0.000000
  110  N  8 YZ    0.013351  -0.007802  -0.011910   0.016415   0.008249
  111  N  8  S   -0.060674  -0.011005  -0.034543   0.015530  -0.005675
  112  N  8  X    0.000000   0.000000   0.000000   0.000000   0.000000
  113  N  8  Y    0.001641  -0.015179  -0.029981   0.018183  -0.012173
[...]
   18  H  2  Z    0.010399   0.535484   0.756367  -0.146237
   19  H  3  S    0.152076   1.599584  -1.555997  -0.660489
   20  H  3  S   -0.093327   2.290909  -2.816203  -0.733190
   21  H  3  X    0.000000   0.000000   0.000000   0.000000
   22  H  3  Y    0.204987   0.114463  -0.067804   0.252383
   23  H  3  Z    0.044156   0.780445  -0.858444  -0.347294
   24  H  3  S    0.057917   0.146498  -0.540450  -0.134526
   25  H  3  X    0.000000   0.000000   0.000000   0.000000
   26  H  3  Y   -0.348712   0.078523  -0.232556  -0.082731
   27  H  3  Z   -0.010399   0.535484  -0.756367  -0.146237
   28  H  4  S   -1.482257   0.568222  -0.439897   1.341633
   29  H  4  S   -2.336927  -2.232158  -1.012598   1.848223
   30  H  4  X    0.000000   0.000000   0.000000   0.000000
   31  H  4  Y    0.920052  -0.554527   0.017449  -0.503661
   32  H  4  Z    0.305891   0.061668   0.334162  -0.490934
   33  H  4  S   -0.409543  -0.123526  -0.196163   0.330852
   34  H  4  X    0.000000   0.000000   0.000000   0.000000
   35  H  4  Y    0.422061   0.773181   0.314185  -0.403707
   36  H  4  Z    0.413589   0.140085  -0.025118  -0.230019
   37  H  5  S    1.482257   0.568222   0.439897   1.341633
   38  H  5  S    2.336927  -2.232158   1.012598   1.848223
   39  H  5  X    0.000000   0.000000   0.000000   0.000000
   40  H  5  Y    0.920052   0.554527   0.017449   0.503661
   41  H  5  Z   -0.305891   0.061668  -0.334162  -0.490934
   42  H  5  S    0.409543  -0.123526   0.196163   0.330852
   43  H  5  X    0.000000   0.000000   0.000000   0.000000
   44  H  5  Y    0.422061  -0.773181   0.314185   0.403707
   45  H  5  Z   -0.413589   0.140085   0.025118  -0.230019
   46  C  6  S    0.000000  -0.448482   0.000000  -0.119675
   47  C  6  S    0.000000  -0.593649   0.000000  -0.189234
   48  C  6  S    0.000000  13.531266   0.000000   3.004373
   49  C  6  X    0.000000   0.000000   0.000000   0.000000
   50  C  6  Y    0.649649   0.000000  -0.143208   0.000000
   51  C  6  Z    0.000000   0.074214   0.000000   0.287426
   52  C  6  X    0.000000   0.000000   0.000000   0.000000
   53  C  6  Y    1.559119   0.000000  -0.120996   0.000000
   54  C  6  Z    0.000000  -1.747302   0.000000   0.406515
   55  C  6 XX    0.000000  -1.010737   0.000000  -0.232840
   56  C  6 YY    0.000000   0.793714   0.000000  -1.152378
   57  C  6 ZZ    0.000000   0.217023   0.000000   1.385218
   58  C  6 XY    0.000000   0.000000   0.000000   0.000000
   59  C  6 XZ    0.000000   0.000000   0.000000   0.000000
   60  C  6 YZ   -0.409581   0.000000   0.986871   0.000000
   61  C  6  S    0.000000   2.977471   0.000000   2.239064
   62  C  6  X    0.000000   0.000000   0.000000   0.000000
   63  C  6  Y   -0.003574   0.000000  -0.361202   0.000000
   64  C  6  Z    0.000000  -0.538590   0.000000   0.491229
   65  C  6 XX    0.000000  -1.672867   0.000000  -0.246906
   66  C  6 YY    0.000000   3.462994   0.000000   0.169843
   67  C  6 ZZ    0.000000  -1.790127   0.000000   0.077063
   68  C  6 XY    0.000000   0.000000   0.000000   0.000000
   69  C  6 XZ    0.000000   0.000000   0.000000   0.000000
   70  C  6 YZ   -1.077463   0.000000  -0.195562   0.000000
   71  N  7  S    0.039376   0.532501   0.254369   0.231140
   72  N  7  S    0.132946   0.844042   0.462038   0.424750
   73  N  7  S    0.300873  -8.874728  -1.931900  -1.760466
   74  N  7  X    0.000000   0.000000   0.000000   0.000000
   75  N  7  Y    0.366871  -0.026856  -0.221613  -0.341883
   76  N  7  Z    0.130355   0.166146   0.438760  -0.097724
   77  N  7  X    0.000000   0.000000   0.000000   0.000000
   78  N  7  Y    2.401192   2.263175   0.143222  -0.601389
   79  N  7  Z    0.637667  -0.957811   1.802598  -1.098727
   80  N  7 XX   -0.252945   0.808482   0.254947   0.164126
   81  N  7 YY    0.051044  -0.075675   0.768668  -0.707074
   82  N  7 ZZ    0.201901  -0.732807  -1.023614   0.542949
   83  N  7 XY    0.000000   0.000000   0.000000   0.000000
   84  N  7 XZ    0.000000   0.000000   0.000000   0.000000
   85  N  7 YZ    0.989793   0.048900   0.193273  -0.928450
   86  N  7  S   -0.202878  -1.894090  -0.860083  -1.387371
   87  N  7  X    0.000000   0.000000   0.000000   0.000000
   88  N  7  Y    1.156986   0.304224   0.288104  -0.210487
   89  N  7  Z    0.196707   0.622371   0.828464  -0.610298
   90  N  7 XX   -0.117181   0.361709   0.066016   0.097104
   91  N  7 YY   -0.145257   0.536671   0.340256  -0.366501
   92  N  7 ZZ    0.262438  -0.898380  -0.406272   0.269397
   93  N  7 XY    0.000000   0.000000   0.000000   0.000000
   94  N  7 XZ    0.000000   0.000000   0.000000   0.000000
   95  N  7 YZ    0.083785   0.521006   0.188976  -0.337325
   96  N  8  S   -0.039376   0.532501  -0.254369   0.231140
   97  N  8  S   -0.132946   0.844042  -0.462038   0.424750
   98  N  8  S   -0.300873  -8.874728   1.931900  -1.760466
   99  N  8  X    0.000000   0.000000   0.000000   0.000000
  100  N  8  Y    0.366871   0.026856  -0.221613   0.341883
  101  N  8  Z   -0.130355   0.166146  -0.438760  -0.097724
  102  N  8  X    0.000000   0.000000   0.000000   0.000000
  103  N  8  Y    2.401192  -2.263175   0.143222   0.601389
  104  N  8  Z   -0.637667  -0.957811  -1.802598  -1.098727
  105  N  8 XX    0.252945   0.808482  -0.254947   0.164126
  106  N  8 YY   -0.051044  -0.075675  -0.768668  -0.707074
  107  N  8 ZZ   -0.201901  -0.732807   1.023614   0.542949
  108  N  8 XY    0.000000   0.000000   0.000000   0.000000
  109  N  8 XZ    0.000000   0.000000   0.000000   0.000000
  110  N  8 YZ    0.989793  -0.048900   0.193273   0.928450
  111  N  8  S    0.202878  -1.894090   0.860083  -1.387371
  112  N  8  X    0.000000   0.000000   0.000000   0.000000
  113  N  8  Y    1.156986  -0.304224   0.288104   0.210487
  114  N  8  Z   -0.196707   0.622371  -0.828464  -0.610298
  115  N  8 XX    0.117181   0.361709  -0.066016   0.097104
  116  N  8 YY    0.145257   0.536671  -0.340256  -0.366501
  117  N  8 ZZ   -0.262438  -0.898380   0.406272   0.269397
  118  N  8 XY    0.000000   0.000000   0.000000   0.000000
  119  N  8 XZ    0.000000   0.000000   0.000000   0.000000
  120  N  8 YZ    0.083785  -0.521006   0.188976   0.337325
 .....DONE WITH MCSCF ITERATIONS.....
 STEP CPU TIME =    16.75 TOTAL CPU TIME =       20.6 (    0.3 MIN)
 TOTAL WALL CLOCK TIME=       28.0 SECONDS, CPU UTILIZATION IS  73.43%

     ----------------------------------------------------------------
     PROPERTY VALUES FOR THE MCSCF SELF-CONSISTENT FIELD WAVEFUNCTION
     ----------------------------------------------------------------

          -----------------
          ENERGY COMPONENTS
          -----------------

         WAVEFUNCTION NORMALIZATION =       1.0000000000

                ONE ELECTRON ENERGY =    -352.5716630382
                TWO ELECTRON ENERGY =     123.2129696731
           NUCLEAR REPULSION ENERGY =      80.0312601802
                                      ------------------
                       TOTAL ENERGY =    -149.3274331849

 ELECTRON-ELECTRON POTENTIAL ENERGY =     123.2129696731
  NUCLEUS-ELECTRON POTENTIAL ENERGY =    -501.8008951032
   NUCLEUS-NUCLEUS POTENTIAL ENERGY =      80.0312601802
                                      ------------------
             TOTAL POTENTIAL ENERGY =    -298.5566652499
               TOTAL KINETIC ENERGY =     149.2292320650
                 VIRIAL RATIO (V/T) =       2.0006580555

          ---------------------------------------
          MULLIKEN AND LOWDIN POPULATION ANALYSES
          ---------------------------------------

     MULLIKEN ATOMIC POPULATION IN EACH MOLECULAR ORBITAL

                      1          2          3          4          5

                  2.000000   2.000000   2.000000   2.000000   2.000000

    1             0.000065   0.000505   0.004293   0.022199  -0.022939
    2             0.000244   0.000164  -0.000223   0.113913   0.115928
    3             0.000244   0.000164  -0.000223   0.113913   0.115928
    4             0.000498  -0.000078  -0.000086   0.057378   0.114426
    5             0.000498  -0.000078  -0.000086   0.057378   0.114426
    6             0.004388   0.005626   2.001957   0.410844  -0.004186
    7             0.996950   0.996932  -0.002816   0.612188   0.783208
    8             0.997114   0.996767  -0.002816   0.612188   0.783208

                      6          7          8          9         10

                  2.000000   2.000000   2.000000   2.000000   2.000000

    1             0.152728   0.257312   0.012776   0.007857   0.640571
    2             0.123431   0.058230   0.254675   0.068863   0.181269
    3             0.123431   0.058230   0.254675   0.068863   0.181269
    4             0.078355   0.229007  -0.010257   0.343539   0.028983
    5             0.078355   0.229007  -0.010257   0.343539   0.028983
    6             0.523973   0.190173   0.377791   0.084625   0.487970
    7             0.459864   0.489020   0.560299   0.541356   0.225478
    8             0.459864   0.489020   0.560299   0.541356   0.225478

                     11         12         13

                  2.000000   1.499980   0.500020

    1            -0.008562   0.000000   0.073420
    2             0.005192   0.004745   0.125896
    3             0.005192   0.004745   0.125896
    4             0.002639   0.008750   0.053328
    5             0.002639   0.008750   0.053328
    6             0.569491   0.038416   0.157404
    7             0.711704   0.717287  -0.044626
    8             0.711704   0.717287  -0.044627
 WARNING! MCSCF POPULATIONS SHOWN ABOVE ARE FOR THE NATURAL ORBITALS.
 IGNORE THE ABOVE DATA FOR MCSCF FUNCTIONS WHICH ARE NOT OF -FORS- TYPE.
 THE FOLLOWING POPULATIONS ARE CORRECT FOR ANY MCSCF WAVEFUNCTION.

               ----- POPULATIONS IN EACH AO -----
                             MULLIKEN      LOWDIN
              1  H  1  S      0.74346     0.51499
              2  H  1  S      0.30881     0.14149
              3  H  1  X      0.00322     0.00732
              4  H  1  Y      0.00229     0.00725
              5  H  1  Z      0.02638     0.04831
              6  H  1  S      0.08421     0.04878
              7  H  1  X     -0.01178     0.03464
              8  H  1  Y     -0.00453     0.02958
              9  H  1  Z     -0.01184     0.06135
             10  H  2  S      0.70699     0.45459
             11  H  2  S      0.20670     0.11543
             12  H  2  X      0.01025     0.02606
             13  H  2  Y      0.00526     0.01995
             14  H  2  Z      0.04305     0.07714
             15  H  2  S      0.08187     0.07725
             16  H  2  X     -0.00032     0.05361
             17  H  2  Y     -0.00997     0.04196
             18  H  2  Z      0.00848     0.08770
             19  H  3  S      0.70699     0.45459
             20  H  3  S      0.20670     0.11543
             21  H  3  X      0.01025     0.02606
             22  H  3  Y      0.00526     0.01995
             23  H  3  Z      0.04305     0.07714
             24  H  3  S      0.08187     0.07725
             25  H  3  X     -0.00032     0.05361
             26  H  3  Y     -0.00997     0.04196
             27  H  3  Z      0.00848     0.08770
             28  H  4  S      0.71858     0.45865
             29  H  4  S      0.15467     0.11120
             30  H  4  X      0.01104     0.02685
             31  H  4  Y      0.03096     0.05581
             32  H  4  Z      0.01520     0.03524
             33  H  4  S      0.01572     0.04699
             34  H  4  X      0.00035     0.05570
             35  H  4  Y     -0.01594     0.06242
             36  H  4  Z     -0.02409     0.05308
             37  H  5  S      0.71858     0.45865
             38  H  5  S      0.15467     0.11120
             39  H  5  X      0.01104     0.02685
             40  H  5  Y      0.03096     0.05581
             41  H  5  Z      0.01520     0.03524
             42  H  5  S      0.01572     0.04699
             43  H  5  X      0.00035     0.05570
             44  H  5  Y     -0.01594     0.06242
             45  H  5  Z     -0.02409     0.05308
             46  C  6  S      2.00689     1.77724
             47  C  6  S      0.68803     0.44900
             48  C  6  S      0.08102     0.16589
             49  C  6  X      0.42532     0.34227
             50  C  6  Y      0.72589     0.60910
             51  C  6  Z      0.79396     0.65443
             52  C  6  X      0.15284     0.20082
             53  C  6  Y     -0.16982     0.18834
             54  C  6  Z     -0.00359     0.25098
             55  C  6 XX      0.03246     0.04658
             56  C  6 YY      0.02671     0.19487
             57  C  6 ZZ      0.04287     0.16092
             58  C  6 XY      0.00947     0.07694
             59  C  6 XZ      0.04263     0.01313
             60  C  6 YZ      0.00000     0.08271
             61  C  6  S      0.21754     0.06566
             62  C  6  X     -0.00247     0.01589
             63  C  6  Y      0.01377     0.02679
             64  C  6  Z      0.01048     0.03056
             65  C  6 XX     -0.05749     0.01357
             66  C  6 YY     -0.01805     0.15420
             67  C  6 ZZ     -0.00446     0.11707
             68  C  6 XY     -0.01568     0.13778
             69  C  6 XZ     -0.14985     0.01994
             70  C  6 YZ      0.00000     0.13571
             71  N  7  S      2.00544     1.84121
             72  N  7  S      0.74888     0.50576
             73  N  7  S      0.75265     0.24296
             74  N  7  X      0.76626     0.69324
             75  N  7  Y      0.80278     0.69279
             76  N  7  Z      0.82639     0.71260
             77  N  7  X      0.61347     0.39425
             78  N  7  Y      0.28766     0.35381
             79  N  7  Z      0.30170     0.38197
             80  N  7 XX      0.00824     0.08859
             81  N  7 YY      0.00510     0.15401
             82  N  7 ZZ      0.00380     0.14458
             83  N  7 XY      0.00103     0.00486
             84  N  7 XZ      0.01198     0.00133
             85  N  7 YZ      0.00000     0.02175
             86  N  7  S     -0.12605     0.06603
             87  N  7  X      0.02676     0.02995
             88  N  7  Y      0.00429     0.04055
             89  N  7  Z      0.01212     0.04331
             90  N  7 XX     -0.01374     0.01149
             91  N  7 YY      0.00173     0.08989
             92  N  7 ZZ      0.01559     0.07763
             93  N  7 XY      0.00208     0.03220
             94  N  7 XZ     -0.01130     0.00758
             95  N  7 YZ      0.00000     0.09598
             96  N  8  S      2.00544     1.84121
             97  N  8  S      0.74888     0.50576
             98  N  8  S      0.75265     0.24296
             99  N  8  X      0.76626     0.69324
            100  N  8  Y      0.80278     0.69279
            101  N  8  Z      0.82639     0.71260
            102  N  8  X      0.61347     0.39425
            103  N  8  Y      0.28766     0.35381
            104  N  8  Z      0.30170     0.38197
            105  N  8 XX      0.00824     0.08859
            106  N  8 YY      0.00510     0.15401
            107  N  8 ZZ      0.00380     0.14458
            108  N  8 XY      0.00103     0.00486
            109  N  8 XZ      0.01198     0.00133
            110  N  8 YZ      0.00000     0.02175
            111  N  8  S     -0.12605     0.06603
            112  N  8  X      0.02676     0.02995
            113  N  8  Y      0.00429     0.04055
            114  N  8  Z      0.01212     0.04331
            115  N  8 XX     -0.01374     0.01149
            116  N  8 YY      0.00173     0.08989
            117  N  8 ZZ      0.01559     0.07763
            118  N  8 XY      0.00208     0.03220
            119  N  8 XZ     -0.01130     0.00758
            120  N  8 YZ      0.00000     0.09598

          ----- MULLIKEN ATOMIC OVERLAP POPULATIONS -----
          (OFF-DIAGONAL ELEMENTS NEED TO BE MULTIPLIED BY 2)

             1           2           3           4           5

    1    0.9586114
    2    0.0439964   0.7322069
    3    0.0439964   0.0446895   0.7322070
    4    0.0051015  -0.1137566   0.0077498   0.7069281
    5    0.0051015   0.0077498  -0.1137566   0.0033528   0.7069280
    6    0.3000654  -0.0233568  -0.0233567  -0.0836325  -0.0836325
    7   -0.1083246   0.3983834  -0.0375874   0.3741484   0.0065911
    8   -0.1083246  -0.0375874   0.3983833   0.0065911   0.3741484

             6           7           8

    6    4.3039670
    7    0.2292095   6.2196875
    8    0.2292094  -0.0352637   6.2196876

          TOTAL MULLIKEN AND LOWDIN ATOMIC POPULATIONS
       ATOM         MULL.POP.    CHARGE          LOW.POP.     CHARGE
    1 H             1.140223   -0.140223         0.893716    0.106284
    2 H             1.052325   -0.052325         0.953683    0.046317
    3 H             1.052325   -0.052325         0.953683    0.046317
    4 H             0.906483    0.093517         0.905930    0.094070
    5 H             0.906483    0.093517         0.905930    0.094070
    6 C             4.848473    1.151527         5.930388    0.069612
    7 N             7.046844   -0.046844         6.728335    0.271665
    8 N             7.046844   -0.046844         6.728335    0.271665

          MULLIKEN SPHERICAL HARMONIC POPULATIONS
       ATOM           S       P       D      F      G      H      I    TOTAL
    1 H             1.14    0.00    0.00   0.00   0.00   0.00   0.00    1.14
    2 H             1.00    0.06    0.00   0.00   0.00   0.00   0.00    1.05
    3 H             1.00    0.06    0.00   0.00   0.00   0.00   0.00    1.05
    4 H             0.89    0.02    0.00   0.00   0.00   0.00   0.00    0.91
    5 H             0.89    0.02    0.00   0.00   0.00   0.00   0.00    0.91
    6 C             2.99    1.95   -0.09   0.00   0.00   0.00   0.00    4.85
    7 N             3.38    3.64    0.02   0.00   0.00   0.00   0.00    7.05
    8 N             3.38    3.64    0.02   0.00   0.00   0.00   0.00    7.05

          ---------------------
          ELECTROSTATIC MOMENTS
          ---------------------

 POINT   1           X           Y           Z (BOHR)    CHARGE
                 0.000000    0.000000    0.004366        1.00 (A.U.)
         DX          DY          DZ         /D/  (DEBYE)
     0.000000    0.000000    1.543704    1.543704
 ...... END OF PROPERTY EVALUATION ......
 STEP CPU TIME =     0.02 TOTAL CPU TIME =       20.6 (    0.3 MIN)
 TOTAL WALL CLOCK TIME=       28.0 SECONDS, CPU UTILIZATION IS  73.50%
                706141  WORDS OF DYNAMIC MEMORY USED
 EXECUTION OF GAMESS TERMINATED NORMALLY Fri Sep 22 20:18:16 2017
 DDI: 1128 bytes (0.0 MB / 0 MWords) used by master data server.

 ----------------------------------------
 CPU timing information for all processes
 ========================================
 0: 16.341021 + 4.248265 = 20.589286
 ----------------------------------------
 ddikick.x: exited gracefully.
----- accounting info -----
Fri Sep 22 20:18:19 CEST 2017
Files used on the master node lpqlx139 were:
-rw-r--r-- 1 scemama scemama    248724 Sep 22 20:18 /dev/shm//gamess/C1.dat
-rw-r--r-- 1 scemama scemama    223653 Sep 22 20:17 /dev/shm//gamess/C1.F05
-rw-r--r-- 1 scemama scemama 162554448 Sep 22 20:17 /dev/shm//gamess/C1.F08
-rw-r--r-- 1 scemama scemama    238104 Sep 22 20:18 /dev/shm//gamess/C1.F09
-rw-r--r-- 1 scemama scemama   9030720 Sep 22 20:18 /dev/shm//gamess/C1.F10
-rw-r--r-- 1 scemama scemama    268000 Sep 22 20:17 /dev/shm//gamess/C1.F11
-rw-r--r-- 1 scemama scemama       248 Sep 22 20:18 /dev/shm//gamess/C1.F12
-rw-r--r-- 1 scemama scemama    112888 Sep 22 20:18 /dev/shm//gamess/C1.F13
-rw-r--r-- 1 scemama scemama   4800008 Sep 22 20:18 /dev/shm//gamess/C1.F14
-rw-r--r-- 1 scemama scemama    180752 Sep 22 20:18 /dev/shm//gamess/C1.F15
-rw-r--r-- 1 scemama scemama    180752 Sep 22 20:18 /dev/shm//gamess/C1.F16
-rw-r--r-- 1 scemama scemama    384768 Sep 22 20:18 /dev/shm//gamess/C1.F23
0.148u 0.048s 0:32.08 0.5%	0+0k 0+0io 0pf+0w
