----- GAMESS execution script -----
This job is running on host lpqlx139
under operating system Linux at Tue Sep 19 11:29:01 CEST 2017
Available scratch disk space (Kbyte units) at beginning of the job is
Filesystem                                             1K-blocks     Used Available Use% Mounted on
/dev/disk/by-uuid/e0d35396-14d3-4d0f-9cc9-2a3899cf3e0f  51175000 49545672   1629328  97% /

 Distributed Data Interface kickoff program.
 Initiating 1 compute processes on 1 nodes to run the following command:
 /usr/local/gamess/gamess.01.x C3 

          ******************************************************
          *         GAMESS VERSION = 22 FEB 2006 (R5)          *
          *             FROM IOWA STATE UNIVERSITY             *
          * M.W.SCHMIDT, K.K.BALDRIDGE, J.A.BOATZ, S.T.ELBERT, *
          *   M.S.GORDON, J.H.JENSEN, S.KOSEKI, N.MATSUNAGA,   *
          *          K.A.NGUYEN, S.J.SU, T.L.WINDUS,           *
          *       TOGETHER WITH M.DUPUIS, J.A.MONTGOMERY       *
          *         J.COMPUT.CHEM.  14, 1347-1363(1993)        *
          ***************** AMD 64 BIT VERSION *****************

     SINCE 1993, STUDENTS AND POSTDOCS WORKING AT IOWA STATE UNIVERSITY
     AND ALSO IN THEIR VARIOUS JOBS AFTER LEAVING ISU HAVE MADE IMPORTANT
     CONTRIBUTIONS TO THE CODE:
     IVANA ADAMOVIC, CHRISTINE AIKENS, YURI ALEXEEV, POOJA ARORA, ROB BELL,
     PRADIPTA BANDYOPADHYAY, BRETT BODE, GALINA CHABAN, WEI CHEN,
     CHEOL HO CHOI, PAUL DAY, TIM DUDLEY, DMITRI FEDOROV, GRAHAM FLETCHER,
     MARK FREITAG, KURT GLAESEMANN, GRANT MERRILL, TAKESHI NAGATA,
     HEATHER NETZLOFF, BOSILJKA NJEGIC, RYAN OLSON, MIKE PAK, JIM SHOEMAKER,
     LYUDMILA SLIPCHENKO, JIE SONG, TETSUYA TAKETSUGU, SIMON WEBB.

     ADDITIONAL CODE HAS BEEN PROVIDED BY COLLABORATORS IN OTHER GROUPS:
     IOWA STATE UNIVERSITY: JOE IVANIC, KLAUS RUEDENBERG
     UNIVERSITY OF TOKYO: KIMIHIKO HIRAO, HARUYUKI NAKANO, TAKAHITO
          NAKAJIMA, TAKAO TSUNEDA, MUNEAKI KAMIYA, SUSUMU YANAGISAWA,
          KIYOSHI YAGI
     UNIVERSITY OF SOUTHERN DENMARK: FRANK JENSEN
     UNIVERSITY OF IOWA: VISVALDAS KAIRYS, HUI LI
     NATIONAL INST. OF STANDARDS AND TECHNOLOGY: WALT STEVENS, DAVID GARMER
     UNIVERSITY OF PISA: BENEDETTA MENNUCCI, JACOPO TOMASI
     UNIVERSITY OF MEMPHIS: HENRY KURTZ, PRAKASHAN KORAMBATH
     UNIVERSITY OF ALBERTA: MARIUSZ KLOBUKOWSKI
     UNIVERSITY OF NEW ENGLAND: MARK SPACKMAN
     MIE UNIVERSITY: HIROAKI UMEDA
     MICHIGAN STATE UNIVERSITY:
          KAROL KOWALSKI, MARTA WLOCH, PIOTR PIECUCH
     UNIVERSITY OF SILESIA: MONIKA MUSIAL, STANISLAW KUCHARSKI
     FACULTES UNIVERSITAIRES NOTRE-DAME DE LA PAIX:
          OLIVIER QUINET, BENOIT CHAMPAGNE
     UNIVERSITY OF CALIFORNIA - SANTA BARBARA: BERNARD KIRTMAN
     INSTITUTE FOR MOLECULAR SCIENCE: KAZUYA ISHIMURA AND SHIGERU NAGASE
     UNIVERSITY OF NOTRE DAME: DAN CHIPMAN
     KYUSHU UNIVERSITY:
          FENG LONG GU, JACEK KORCHOWIEC, MARCIN MAKOWSKI, AND YURIKO AOKI
     PENNSYLVANIA STATE UNIVERSITY:
          TZVETELIN IORDANOV, CHET SWALINA, SHARON HAMMES-SCHIFFER

 EXECUTION OF GAMESS BEGUN Tue Sep 19 11:29:01 2017

            ECHO OF THE FIRST FEW INPUT CARDS -
 INPUT CARD> $CONTRL                                                                        
 INPUT CARD>   EXETYP=RUN COORD=UNIQUE  UNITS=ANGS                                          
 INPUT CARD>   RUNTYP=ENERGY SCFTYP=MCSCF CITYP=NONE                                        
 INPUT CARD>   MAXIT=100                                                                    
 INPUT CARD>   ISPHER=1                                                                     
 INPUT CARD>   MULT=1                                                                       
 INPUT CARD>   ICHARG=1                                                                     
 INPUT CARD>   MPLEVL=0                                                                     
 INPUT CARD> $END                                                                           
 INPUT CARD>                                                                                
 INPUT CARD> $GUESS                                                                         
 INPUT CARD>  GUESS=MOREAD                                                                  
 INPUT CARD>  NORB=178                                                                      
 INPUT CARD> $END                                                                           
 INPUT CARD>                                                                                
 INPUT CARD> $SCF                                                                           
 INPUT CARD>  DIRSCF=.T.                                                                    
 INPUT CARD> $END                                                                           
 INPUT CARD>                                                                                
 INPUT CARD> $MCSCF                                                                         
 INPUT CARD>   FOCAS=.F.    SOSCF=.T.   FULLNR=.F.                                          
 INPUT CARD>   CISTEP=GUGA EKT=.F. QUAD=.F. JACOBI=.f.                                      
 INPUT CARD>   MAXIT=1000                                                                   
 INPUT CARD> $END                                                                           
 INPUT CARD>                                                                                
 INPUT CARD> $GUGDIA                                                                        
 INPUT CARD>  NSTATE=2                                                                      
 INPUT CARD> $END                                                                           
 INPUT CARD>                                                                                
 INPUT CARD> $GUGDM2                                                                        
 INPUT CARD>  WSTATE(1)=0.5,0.5                                                             
 INPUT CARD> $END                                                                           
 INPUT CARD>                                                                                
 INPUT CARD>                                                                                
 INPUT CARD> $DRT                                                                           
 INPUT CARD>  NMCC=18                                                                       
 INPUT CARD>  NDOC=1                                                                        
 INPUT CARD>  NALP=0                                                                        
 INPUT CARD>  NVAL=1                                                                        
 INPUT CARD>  NEXT=0                                                                        
 INPUT CARD>  ISTSYM=1                                                                      
 INPUT CARD>  FORS=.TRUE.                                                                   
 INPUT CARD>  GROUP=C1                                                                      
 INPUT CARD>  MXNINT= 600000                                                                
 INPUT CARD>  NPRT=2                                                                        
 INPUT CARD> $END                                                                           
 INPUT CARD>                                                                                
 INPUT CARD> $GUGDM                                                                         
 INPUT CARD>  NFLGDM(1)=1,1                                                                 
 INPUT CARD>  WSTATE(1)=0.5,0.5                                                             

 ..... DONE SETTING UP THE RUN .....
    1000000 WORDS OF MEMORY AVAILABLE

     BASIS OPTIONS
     -------------
     GBASIS=ACCD         IGAUSS=       0      POLAR=NONE    
     NDFUNC=       0     NFFUNC=       0     DIFFSP=       F
     NPFUNC=       0      DIFFS=       F


     RUN TITLE
     ---------
 C3                                                                              

 THE POINT GROUP OF THE MOLECULE IS C1      
 THE ORDER OF THE PRINCIPAL AXIS IS     0

 ATOM      ATOMIC                      COORDINATES (BOHR)
           CHARGE         X                   Y                   Z
 H           1.0     0.0000000000        0.0000000000        2.6919638024
 H           1.0     0.0000000000        2.1924544218       -2.7385020843
 H           1.0     0.0000000000       -2.1924544218       -2.7385020843
 H           1.0     0.0000000000        4.7837128366        2.1957482142
 H           1.0     0.0000000000       -4.7837128366        2.1957482142
 H           1.0     0.0000000000        6.0686358014       -0.7840907760
 H           1.0     0.0000000000       -6.0686358014       -0.7840907760
 C           6.0     0.0000000000        0.0000000000        0.6436784659
 C           6.0     0.0000000000        2.2452174611       -0.6875087705
 C           6.0     0.0000000000       -2.2452174611       -0.6875087705
 N           7.0     0.0000000000        4.5147859312        0.3106955188
 N           7.0     0.0000000000       -4.5147859312        0.3106955188

          INTERNUCLEAR DISTANCES (ANGS.)
          ------------------------------

                    H              H              H              H         

  1  H               0.0000000      3.0990463      3.0990463      2.5450146 *  
  2  H               3.0990463      0.0000000      2.3203940 *    2.9492528 *  
  3  H               3.0990463      2.3203940 *    0.0000000      4.5217177    
  4  H               2.5450146 *    2.9492528 *    4.5217177      0.0000000    
  5  H               2.5450146 *    4.5217177      2.9492528 *    5.0628640    
  6  H               3.7008864      2.2971721 *    4.4922547      1.7172162 *  
  7  H               3.7008864      4.4922547      2.2971721 *    5.9553701    
  8  C               1.0839060 *    2.1329192 *    2.1329192 *    2.6613370 *  
  9  C               2.1470408 *    1.0856981 *    2.5869952 *    2.0328349 *  
 10  C               2.1470408 *    2.5869952 *    1.0856981 *    4.0203206    
 11  N               2.7010718 *    2.0282633 *    3.8988794      1.0076270 *  
 12  N               2.7010718 *    3.8988794      2.0282633 *    5.0206485    

                    H              H              H              C         

  1  H               2.5450146 *    3.7008864      3.7008864      1.0839060 *  
  2  H               4.5217177      2.2971721 *    4.4922547      2.1329192 *  
  3  H               2.9492528 *    4.4922547      2.2971721 *    2.1329192 *  
  4  H               5.0628640      1.7172162 *    5.9553701      2.6613370 *  
  5  H               0.0000000      5.9553701      1.7172162 *    2.6613370 *  
  6  H               5.9553701      0.0000000      6.4227680      3.2990654    
  7  H               1.7172162 *    6.4227680      0.0000000      3.2990654    
  8  C               2.6613370 *    3.2990654      3.2990654      0.0000000    
  9  C               4.0203206      2.0239114 *    4.3997989      1.3812500 *  
 10  C               2.0328349 *    4.3997989      2.0239114 *    1.3812500 *  
 11  N               5.0206485      1.0058554 *    5.6303905      2.3956112 *  
 12  N               1.0076270 *    5.6303905      1.0058554 *    2.3956112 *  

                    C              C              N              N         

  1  H               2.1470408 *    2.1470408 *    2.7010718 *    2.7010718 *  
  2  H               1.0856981 *    2.5869952 *    2.0282633 *    3.8988794    
  3  H               2.5869952 *    1.0856981 *    3.8988794      2.0282633 *  
  4  H               2.0328349 *    4.0203206      1.0076270 *    5.0206485    
  5  H               4.0203206      2.0328349 *    5.0206485      1.0076270 *  
  6  H               2.0239114 *    4.3997989      1.0058554 *    5.6303905    
  7  H               4.3997989      2.0239114 *    5.6303905      1.0058554 *  
  8  C               1.3812500 *    1.3812500 *    2.3956112 *    2.3956112 *  
  9  C               0.0000000      2.3762360 *    1.3120344 *    3.6160296    
 10  C               2.3762360 *    0.0000000      3.6160296      1.3120344 *  
 11  N               1.3120344 *    3.6160296      0.0000000      4.7782440    
 12  N               3.6160296      1.3120344 *    4.7782440      0.0000000    

  * ... LESS THAN  3.000


     ATOMIC BASIS SET
     ----------------
 THE CONTRACTED PRIMITIVE FUNCTIONS HAVE BEEN UNNORMALIZED
 THE CONTRACTED BASIS FUNCTIONS ARE NOW NORMALIZED TO UNITY

  SHELL TYPE  PRIMITIVE        EXPONENT          CONTRACTION COEFFICIENT(S)

 H         

      1   S       1            13.0100000    0.033498726390
      1   S       2             1.9620000    0.234800801174
      1   S       3             0.4446000    0.813682957883

      2   S       4             0.1220000    1.000000000000

      3   P       5             0.7270000    1.000000000000

      4   S       6             0.0297400    1.000000000000

      5   P       7             0.1410000    1.000000000000

 H         

      6   S       8            13.0100000    0.033498726390
      6   S       9             1.9620000    0.234800801174
      6   S      10             0.4446000    0.813682957883

      7   S      11             0.1220000    1.000000000000

      8   P      12             0.7270000    1.000000000000

      9   S      13             0.0297400    1.000000000000

     10   P      14             0.1410000    1.000000000000

 H         

     11   S      15            13.0100000    0.033498726390
     11   S      16             1.9620000    0.234800801174
     11   S      17             0.4446000    0.813682957883

     12   S      18             0.1220000    1.000000000000

     13   P      19             0.7270000    1.000000000000

     14   S      20             0.0297400    1.000000000000

     15   P      21             0.1410000    1.000000000000

 H         

     16   S      22            13.0100000    0.033498726390
     16   S      23             1.9620000    0.234800801174
     16   S      24             0.4446000    0.813682957883

     17   S      25             0.1220000    1.000000000000

     18   P      26             0.7270000    1.000000000000

     19   S      27             0.0297400    1.000000000000

     20   P      28             0.1410000    1.000000000000

 H         

     21   S      29            13.0100000    0.033498726390
     21   S      30             1.9620000    0.234800801174
     21   S      31             0.4446000    0.813682957883

     22   S      32             0.1220000    1.000000000000

     23   P      33             0.7270000    1.000000000000

     24   S      34             0.0297400    1.000000000000

     25   P      35             0.1410000    1.000000000000

 H         

     26   S      36            13.0100000    0.033498726390
     26   S      37             1.9620000    0.234800801174
     26   S      38             0.4446000    0.813682957883

     27   S      39             0.1220000    1.000000000000

     28   P      40             0.7270000    1.000000000000

     29   S      41             0.0297400    1.000000000000

     30   P      42             0.1410000    1.000000000000

 H         

     31   S      43            13.0100000    0.033498726390
     31   S      44             1.9620000    0.234800801174
     31   S      45             0.4446000    0.813682957883

     32   S      46             0.1220000    1.000000000000

     33   P      47             0.7270000    1.000000000000

     34   S      48             0.0297400    1.000000000000

     35   P      49             0.1410000    1.000000000000

 C         

     36   S      50          6665.0000000    0.000691583963
     36   S      51          1000.0000000    0.005325796153
     36   S      52           228.0000000    0.027060721042
     36   S      53            64.7100000    0.101656846141
     36   S      54            21.0600000    0.274574823617
     36   S      55             7.4950000    0.448294318924
     36   S      56             2.7970000    0.284902610715
     36   S      57             0.5215000    0.015194859206

     37   S      58          6665.0000000   -0.000293269653
     37   S      59          1000.0000000   -0.002318035474
     37   S      60           228.0000000   -0.011499786039
     37   S      61            64.7100000   -0.046826727010
     37   S      62            21.0600000   -0.128466168750
     37   S      63             7.4950000   -0.301266272463
     37   S      64             2.7970000   -0.255630702330
     37   S      65             0.5215000    1.093793361012

     38   S      66             0.1596000    1.000000000000

     39   P      67             9.4390000    0.056979251590
     39   P      68             2.0020000    0.313207211501
     39   P      69             0.5456000    0.760376741738

     40   P      70             0.1517000    1.000000000000

     41   D      71             0.5500000    1.000000000000

     42   S      72             0.0469000    1.000000000000

     43   P      73             0.0404100    1.000000000000

     44   D      74             0.1510000    1.000000000000

 C         

     45   S      75          6665.0000000    0.000691583963
     45   S      76          1000.0000000    0.005325796153
     45   S      77           228.0000000    0.027060721042
     45   S      78            64.7100000    0.101656846141
     45   S      79            21.0600000    0.274574823617
     45   S      80             7.4950000    0.448294318924
     45   S      81             2.7970000    0.284902610715
     45   S      82             0.5215000    0.015194859206

     46   S      83          6665.0000000   -0.000293269653
     46   S      84          1000.0000000   -0.002318035474
     46   S      85           228.0000000   -0.011499786039
     46   S      86            64.7100000   -0.046826727010
     46   S      87            21.0600000   -0.128466168750
     46   S      88             7.4950000   -0.301266272463
     46   S      89             2.7970000   -0.255630702330
     46   S      90             0.5215000    1.093793361012

     47   S      91             0.1596000    1.000000000000

     48   P      92             9.4390000    0.056979251590
     48   P      93             2.0020000    0.313207211501
     48   P      94             0.5456000    0.760376741738

     49   P      95             0.1517000    1.000000000000

     50   D      96             0.5500000    1.000000000000

     51   S      97             0.0469000    1.000000000000

     52   P      98             0.0404100    1.000000000000

     53   D      99             0.1510000    1.000000000000

 C         

     54   S     100          6665.0000000    0.000691583963
     54   S     101          1000.0000000    0.005325796153
     54   S     102           228.0000000    0.027060721042
     54   S     103            64.7100000    0.101656846141
     54   S     104            21.0600000    0.274574823617
     54   S     105             7.4950000    0.448294318924
     54   S     106             2.7970000    0.284902610715
     54   S     107             0.5215000    0.015194859206

     55   S     108          6665.0000000   -0.000293269653
     55   S     109          1000.0000000   -0.002318035474
     55   S     110           228.0000000   -0.011499786039
     55   S     111            64.7100000   -0.046826727010
     55   S     112            21.0600000   -0.128466168750
     55   S     113             7.4950000   -0.301266272463
     55   S     114             2.7970000   -0.255630702330
     55   S     115             0.5215000    1.093793361012

     56   S     116             0.1596000    1.000000000000

     57   P     117             9.4390000    0.056979251590
     57   P     118             2.0020000    0.313207211501
     57   P     119             0.5456000    0.760376741738

     58   P     120             0.1517000    1.000000000000

     59   D     121             0.5500000    1.000000000000

     60   S     122             0.0469000    1.000000000000

     61   P     123             0.0404100    1.000000000000

     62   D     124             0.1510000    1.000000000000

 N         

     63   S     125          9046.0000000    0.000699617413
     63   S     126          1357.0000000    0.005386054630
     63   S     127           309.3000000    0.027391021189
     63   S     128            87.7300000    0.103150591982
     63   S     129            28.5600000    0.278570663317
     63   S     130            10.2100000    0.448294849454
     63   S     131             3.8380000    0.278085928395
     63   S     132             0.7466000    0.015431561233

     64   S     133          9046.0000000   -0.000304990096
     64   S     134          1357.0000000   -0.002408026379
     64   S     135           309.3000000   -0.011944448725
     64   S     136            87.7300000   -0.048925992909
     64   S     137            28.5600000   -0.134472724725
     64   S     138            10.2100000   -0.315112577700
     64   S     139             3.8380000   -0.242857832550
     64   S     140             0.7466000    1.094382206854

     65   S     141             0.2248000    1.000000000000

     66   P     142            13.5500000    0.058905676772
     66   P     143             2.9170000    0.320461106714
     66   P     144             0.7973000    0.753042061792

     67   P     145             0.2185000    1.000000000000

     68   D     146             0.8170000    1.000000000000

     69   S     147             0.0612400    1.000000000000

     70   P     148             0.0561100    1.000000000000

     71   D     149             0.2300000    1.000000000000

 N         

     72   S     150          9046.0000000    0.000699617413
     72   S     151          1357.0000000    0.005386054630
     72   S     152           309.3000000    0.027391021189
     72   S     153            87.7300000    0.103150591982
     72   S     154            28.5600000    0.278570663317
     72   S     155            10.2100000    0.448294849454
     72   S     156             3.8380000    0.278085928395
     72   S     157             0.7466000    0.015431561233

     73   S     158          9046.0000000   -0.000304990096
     73   S     159          1357.0000000   -0.002408026379
     73   S     160           309.3000000   -0.011944448725
     73   S     161            87.7300000   -0.048925992909
     73   S     162            28.5600000   -0.134472724725
     73   S     163            10.2100000   -0.315112577700
     73   S     164             3.8380000   -0.242857832550
     73   S     165             0.7466000    1.094382206854

     74   S     166             0.2248000    1.000000000000

     75   P     167            13.5500000    0.058905676772
     75   P     168             2.9170000    0.320461106714
     75   P     169             0.7973000    0.753042061792

     76   P     170             0.2185000    1.000000000000

     77   D     171             0.8170000    1.000000000000

     78   S     172             0.0612400    1.000000000000

     79   P     173             0.0561100    1.000000000000

     80   D     174             0.2300000    1.000000000000

 TOTAL NUMBER OF BASIS SET SHELLS             =   80
 NUMBER OF CARTESIAN GAUSSIAN BASIS FUNCTIONS =  188
 NOTE: THIS RUN WILL RESTRICT THE MO VARIATION SPACE TO SPHERICAL HARMONICS.
 THE NUMBER OF ORBITALS KEPT IN THE VARIATIONAL SPACE WILL BE PRINTED LATER.
 NUMBER OF ELECTRONS                          =   38
 CHARGE OF MOLECULE                           =    1
 SPIN MULTIPLICITY                            =    1
 NUMBER OF OCCUPIED ORBITALS (ALPHA)          =   19
 NUMBER OF OCCUPIED ORBITALS (BETA )          =   19
 TOTAL NUMBER OF ATOMS                        =   12
 THE NUCLEAR REPULSION ENERGY IS      165.8640811568

     $CONTRL OPTIONS
     ---------------
 SCFTYP=MCSCF        RUNTYP=ENERGY       EXETYP=RUN     
 MPLEVL=       0     CITYP =NONE         CCTYP =NONE         VBTYP =NONE    
 MULT  =       1     ICHARG=       1     NZVAR =       0     COORD =UNIQUE  
 PP    =NONE         RELWFN=NONE         LOCAL =NONE         NUMGRD=       F
 ISPHER=       1     NOSYM =       0     MAXIT =     100     UNITS =ANGS    
 PLTORB=       F     MOLPLT=       F     AIMPAC=       F     FRIEND=        
 NPRINT=       7     IREST =       0     GEOM  =INPUT   
 NORMF =       0     NORMP =       0     ITOL  =      20     ICUT  =       9
 INTTYP=BEST         GRDTYP=BEST         QMTTOL= 1.0E-06

     $SYSTEM OPTIONS
     ---------------
  REPLICATED MEMORY=     1000000 WORDS (ON EVERY NODE).
 DISTRIBUTED MEMDDI=           0 MILLION WORDS IN AGGREGATE,
 MEMDDI DISTRIBUTED OVER   1 PROCESSORS IS           0 WORDS/PROCESSOR.
 TOTAL MEMORY REQUESTED ON EACH PROCESSOR=     1000000 WORDS.
 TIMLIM=      525600.00 MINUTES, OR   365.00 DAYS.
 PARALL= F  BALTYP=  NXTVAL  KDIAG=    0  COREFL= F

          ----------------
          PROPERTIES INPUT
          ----------------

     MOMENTS            FIELD           POTENTIAL          DENSITY
 IEMOM =       1   IEFLD =       0   IEPOT =       0   IEDEN =       0
 WHERE =COMASS     WHERE =NUCLEI     WHERE =NUCLEI     WHERE =NUCLEI  
 OUTPUT=BOTH       OUTPUT=BOTH       OUTPUT=BOTH       OUTPUT=BOTH    
 IEMINT=       0   IEFINT=       0                     IEDINT=       0
                                                       MORB  =       0

     -------------------------------
     INTEGRAL TRANSFORMATION OPTIONS
     -------------------------------
     NWORD  =       0     CUTOFF = 1.0E-09
     MPTRAN =       0     DIRTRF =       F
     AOINTS =DUP     

          ----------------------
          MCSCF INPUT PARAMETERS
          ----------------------
 CONVERGER SELECTION: FOCAS = F  SOSCF = T  FULLNR = F  QUD = F  JACOBI = F
 SECULAR EQUATION METHOD CISTEP = GUGA    
 --- GENERAL INPUT OPTIONS:
 MAXIT =    1000  MICIT =       5  ACURCY= 1.000E-05
 DAMP  =   0.000  CANONC=       T  ENGTOL= 1.000E-10
 EKT   =       F  NPUNCH=       2  NWORD =         0
 --- INPUT FOR SOSCF CONVERGER:
 FORS  =       T  NOFO  =       1

          ----------------------
          INTEGRAL INPUT OPTIONS
          ----------------------
 NOPK  =       1 NORDER=       0 SCHWRZ=       T

     ------------------------------------------
     THE POINT GROUP IS C1 , NAXIS= 0, ORDER= 1
     ------------------------------------------

 -- VARIATIONAL SPACE WILL BE RESTRICTED TO PURE SPHERICAL HARMONICS ONLY --
 AFTER EXCLUDING CONTAMINANT COMBINATIONS FROM THE CARTESIAN GAUSSIAN BASIS
 SET, THE NUMBER OF SPHERICAL HARMONICS KEPT IN THE VARIATION SPACE IS  178

     DIMENSIONS OF THE SYMMETRY SUBSPACES ARE
 A   =  178

 ..... DONE SETTING UP THE RUN .....
 STEP CPU TIME =     0.03 TOTAL CPU TIME =        0.0 (    0.0 MIN)
 TOTAL WALL CLOCK TIME=        0.0 SECONDS, CPU UTILIZATION IS 100.00%

          ********************
          1 ELECTRON INTEGRALS
          ********************
 TIME TO DO   DIPOLE INTEGRALS=      0.01
 ...... END OF ONE-ELECTRON INTEGRALS ......
 STEP CPU TIME =     0.01 TOTAL CPU TIME =        0.0 (    0.0 MIN)
 TOTAL WALL CLOCK TIME=        0.0 SECONDS, CPU UTILIZATION IS 100.00%

          -------------
          GUESS OPTIONS
          -------------
          GUESS =MOREAD            NORB  =     178          NORDER=       0
          MIX   =       F          PRTMO =       F          PUNMO =       F
          TOLZ  = 1.0E-08          TOLE  = 1.0E-05
          SYMDEN=       F          PURIFY=       F

 INITIAL GUESS ORBITALS GENERATED BY MOREAD   ROUTINE.

 STATISTICS FOR GENERATION OF SYMMETRY ORBITAL -Q- MATRIX
 NUMBER OF CARTESIAN ATOMIC ORBITALS=        188
 NUMBER OF SPHERICAL CONTAMINANTS DROPPED=    10
 NUMBER OF LINEARLY DEPENDENT MOS DROPPED=     0
 TOTAL NUMBER OF MOS IN VARIATION SPACE=     178

 SYMMETRIES FOR INITIAL GUESS ORBITALS FOLLOW.   BOTH SET(S).
    20 ORBITALS ARE OCCUPIED (    5 CORE ORBITALS).
     1=A        2=A        3=A        4=A        5=A        6=A        7=A   
     8=A        9=A       10=A       11=A       12=A       13=A       14=A   
    15=A       16=A       17=A       18=A       19=A       20=A       21=A   
    22=A       23=A       24=A       25=A       26=A       27=A       28=A   
    29=A       30=A       31=A       32=A       33=A       34=A       35=A   
    36=A       37=A       38=A       39=A       40=A       41=A       42=A   
    43=A       44=A       45=A       46=A       47=A       48=A       49=A   
    50=A       51=A       52=A       53=A       54=A       55=A       56=A   
    57=A       58=A       59=A       60=A       61=A       62=A       63=A   
    64=A       65=A       66=A       67=A       68=A       69=A       70=A   
    71=A       72=A       73=A       74=A       75=A       76=A       77=A   
    78=A       79=A       80=A       81=A       82=A       83=A       84=A   
    85=A       86=A       87=A       88=A       89=A       90=A       91=A   
    92=A       93=A       94=A       95=A       96=A       97=A       98=A   
    99=A      100=A      101=A      102=A      103=A      104=A      105=A   
   106=A      107=A      108=A      109=A      110=A      111=A      112=A   
   113=A      114=A      115=A      116=A      117=A      118=A      119=A   
   120=A      121=A      122=A      123=A      124=A      125=A      126=A   
   127=A      128=A      129=A      130=A      131=A      132=A      133=A   
   134=A      135=A      136=A      137=A      138=A      139=A      140=A   
   141=A      142=A      143=A      144=A      145=A      146=A      147=A   
   148=A      149=A      150=A      151=A      152=A      153=A      154=A   
   155=A      156=A      157=A      158=A      159=A      160=A      161=A   
   162=A      163=A      164=A      165=A      166=A      167=A      168=A   
   169=A      170=A      171=A      172=A      173=A      174=A      175=A   
   176=A      177=A      178=A   
 ...... END OF INITIAL ORBITAL SELECTION ......
 STEP CPU TIME =     0.04 TOTAL CPU TIME =        0.1 (    0.0 MIN)
 TOTAL WALL CLOCK TIME=        0.0 SECONDS, CPU UTILIZATION IS 100.00%

                    ----------------------
                    AO INTEGRAL TECHNOLOGY
                    ----------------------
     S,P,L SHELL ROTATED AXIS INTEGRALS, REPROGRAMMED BY
        KAZUYA ISHIMURA (IMS) AND JOSE SIERRA (SYNSTAR).
     S,P,D,L SHELL ROTATED AXIS INTEGRALS PROGRAMMED BY
        KAZUYA ISHIMURA (INSTITUTE FOR MOLECULAR SCIENCE).
     S,P,D,F,G SHELL TO TOTAL QUARTET ANGULAR MOMENTUM SUM 5,
        ERIC PROGRAM BY GRAHAM FLETCHER (ELORET AND NASA ADVANCED
        SUPERCOMPUTING DIVISION, AMES RESEARCH CENTER).
     S,P,D,F,G,L SHELL GENERAL RYS QUADRATURE PROGRAMMED BY
        MICHEL DUPUIS (PACIFIC NORTHWEST NATIONAL LABORATORY).

          --------------------
          2 ELECTRON INTEGRALS
          --------------------

 THE -PK- OPTION IS OFF, THE INTEGRALS ARE NOT IN SUPERMATRIX FORM.
 STORING   15000 INTEGRALS/RECORD ON DISK, USING 12 BYTES/INTEGRAL.
 TWO ELECTRON INTEGRAL EVALUATION REQUIRES   93636 WORDS OF MEMORY.
 SCHWARZ INEQUALITY OVERHEAD:     17666 INTEGRALS, T=        0.01
 II,JST,KST,LST =  1  1  1  1 NREC =         1 INTLOC =    1
 II,JST,KST,LST =  2  1  1  1 NREC =         1 INTLOC =    2
 II,JST,KST,LST =  3  1  1  1 NREC =         1 INTLOC =    7
 II,JST,KST,LST =  4  1  1  1 NREC =         1 INTLOC =   34
 II,JST,KST,LST =  5  1  1  1 NREC =         1 INTLOC =   67
 II,JST,KST,LST =  6  1  1  1 NREC =         1 INTLOC =  214
 II,JST,KST,LST =  7  1  1  1 NREC =         1 INTLOC =  528
 II,JST,KST,LST =  8  1  1  1 NREC =         1 INTLOC =  959
 II,JST,KST,LST =  9  1  1  1 NREC =         1 INTLOC = 2722
 II,JST,KST,LST = 10  1  1  1 NREC =         1 INTLOC = 3727
 II,JST,KST,LST = 11  1  1  1 NREC =         1 INTLOC = 7454
 II,JST,KST,LST = 12  1  1  1 NREC =         1 INTLOC = 9385
 II,JST,KST,LST = 13  1  1  1 NREC =         1 INTLOC =11681
 II,JST,KST,LST = 14  1  1  1 NREC =         2 INTLOC = 4294
 II,JST,KST,LST = 15  1  1  1 NREC =         2 INTLOC = 8040
 II,JST,KST,LST = 16  1  1  1 NREC =         3 INTLOC = 5234
 II,JST,KST,LST = 17  1  1  1 NREC =         3 INTLOC =11029
 II,JST,KST,LST = 18  1  1  1 NREC =         4 INTLOC = 3341
 II,JST,KST,LST = 19  1  1  1 NREC =         5 INTLOC = 8435
 II,JST,KST,LST = 20  1  1  1 NREC =         6 INTLOC = 3896
 II,JST,KST,LST = 21  1  1  1 NREC =         8 INTLOC = 7011
 II,JST,KST,LST = 22  1  1  1 NREC =         9 INTLOC = 3518
 II,JST,KST,LST = 23  1  1  1 NREC =        10 INTLOC = 4171
 II,JST,KST,LST = 24  1  1  1 NREC =        12 INTLOC =11185
 II,JST,KST,LST = 25  1  1  1 NREC =        14 INTLOC = 1793
 II,JST,KST,LST = 26  1  1  1 NREC =        18 INTLOC = 3503
 II,JST,KST,LST = 27  1  1  1 NREC =        19 INTLOC =10422
 II,JST,KST,LST = 28  1  1  1 NREC =        21 INTLOC = 9075
 II,JST,KST,LST = 29  1  1  1 NREC =        26 INTLOC =  711
 II,JST,KST,LST = 30  1  1  1 NREC =        28 INTLOC = 7650
 II,JST,KST,LST = 31  1  1  1 NREC =        35 INTLOC = 8985
 II,JST,KST,LST = 32  1  1  1 NREC =        37 INTLOC =11792
 II,JST,KST,LST = 33  1  1  1 NREC =        40 INTLOC =12158
 II,JST,KST,LST = 34  1  1  1 NREC =        47 INTLOC = 1442
 II,JST,KST,LST = 35  1  1  1 NREC =        50 INTLOC =14740
 II,JST,KST,LST = 36  1  1  1 NREC =        61 INTLOC = 5359
 II,JST,KST,LST = 37  1  1  1 NREC =        65 INTLOC =10038
 II,JST,KST,LST = 38  1  1  1 NREC =        70 INTLOC = 8423
 II,JST,KST,LST = 39  1  1  1 NREC =        75 INTLOC =13010
 II,JST,KST,LST = 40  1  1  1 NREC =        90 INTLOC =11674
 II,JST,KST,LST = 41  1  1  1 NREC =       108 INTLOC = 5125
 II,JST,KST,LST = 42  1  1  1 NREC =       149 INTLOC = 8311
 II,JST,KST,LST = 43  1  1  1 NREC =       158 INTLOC = 7834
 II,JST,KST,LST = 44  1  1  1 NREC =       184 INTLOC = 7478
 II,JST,KST,LST = 45  1  1  1 NREC =       245 INTLOC = 3608
 II,JST,KST,LST = 46  1  1  1 NREC =       256 INTLOC =11145
 II,JST,KST,LST = 47  1  1  1 NREC =       269 INTLOC = 5169
 II,JST,KST,LST = 48  1  1  1 NREC =       283 INTLOC = 3675
 II,JST,KST,LST = 49  1  1  1 NREC =       320 INTLOC =14303
 II,JST,KST,LST = 50  1  1  1 NREC =       365 INTLOC = 2948
 II,JST,KST,LST = 51  1  1  1 NREC =       461 INTLOC = 2979
 II,JST,KST,LST = 52  1  1  1 NREC =       481 INTLOC =11436
 II,JST,KST,LST = 53  1  1  1 NREC =       541 INTLOC = 4527
 II,JST,KST,LST = 54  1  1  1 NREC =       675 INTLOC =10732
 II,JST,KST,LST = 55  1  1  1 NREC =       700 INTLOC = 1205
 II,JST,KST,LST = 56  1  1  1 NREC =       726 INTLOC = 6161
 II,JST,KST,LST = 57  1  1  1 NREC =       754 INTLOC =12524
 II,JST,KST,LST = 58  1  1  1 NREC =       832 INTLOC = 8232
 II,JST,KST,LST = 59  1  1  1 NREC =       920 INTLOC = 9862
 II,JST,KST,LST = 60  1  1  1 NREC =      1108 INTLOC = 1355
 II,JST,KST,LST = 61  1  1  1 NREC =      1146 INTLOC =10415
 II,JST,KST,LST = 62  1  1  1 NREC =      1257 INTLOC =12356
 II,JST,KST,LST = 63  1  1  1 NREC =      1502 INTLOC = 7166
 II,JST,KST,LST = 64  1  1  1 NREC =      1541 INTLOC =10819
 II,JST,KST,LST = 65  1  1  1 NREC =      1585 INTLOC =14626
 II,JST,KST,LST = 66  1  1  1 NREC =      1635 INTLOC = 2175
 II,JST,KST,LST = 67  1  1  1 NREC =      1764 INTLOC =  424
 II,JST,KST,LST = 68  1  1  1 NREC =      1914 INTLOC = 9986
 II,JST,KST,LST = 69  1  1  1 NREC =      2217 INTLOC = 9600
 II,JST,KST,LST = 70  1  1  1 NREC =      2283 INTLOC = 4553
 II,JST,KST,LST = 71  1  1  1 NREC =      2472 INTLOC = 7798
 II,JST,KST,LST = 72  1  1  1 NREC =      2870 INTLOC = 6883
 II,JST,KST,LST = 73  1  1  1 NREC =      2926 INTLOC = 3984
 II,JST,KST,LST = 74  1  1  1 NREC =      2991 INTLOC = 3160
 II,JST,KST,LST = 75  1  1  1 NREC =      3068 INTLOC = 2143
 II,JST,KST,LST = 76  1  1  1 NREC =      3254 INTLOC = 6768
 II,JST,KST,LST = 77  1  1  1 NREC =      3486 INTLOC = 4523
 II,JST,KST,LST = 78  1  1  1 NREC =      3917 INTLOC = 2373
 II,JST,KST,LST = 79  1  1  1 NREC =      4017 INTLOC =10566
 II,JST,KST,LST = 80  1  1  1 NREC =      4306 INTLOC = 1254
 SCHWARZ INEQUALITY TEST SKIPPED    342265 INTEGRAL BLOCKS.
 TOTAL NUMBER OF NONZERO TWO-ELECTRON INTEGRALS =            73338055
       4890 INTEGRAL RECORDS WERE STORED ON DISK FILE  8.
  ...... END OF TWO-ELECTRON INTEGRALS .....
 STEP CPU TIME =     6.36 TOTAL CPU TIME =        6.4 (    0.1 MIN)
 TOTAL WALL CLOCK TIME=        8.0 SECONDS, CPU UTILIZATION IS  80.50%

          -----------------
          MCSCF CALCULATION
          -----------------

 ----- NUCLEAR ENERGY ----- =       165.8640811568

          -----------------------     ----------------------------
          GUGA DISTINCT ROW TABLE     WRITTEN BY B.R.BROOKS,P.SAXE
          -----------------------     ----------------------------

      GROUP=C1           NPRT=       2
       FORS=       T   INTACT=       F
       FOCI=       F   MXNINT=  600000
       SOCI=       F   MXNEME=   10000
     IEXCIT=       0

      -CORE-    -INTERNAL-  -EXTERNAL-
     NFZC=   0   NDOC=   1   NEXT=   0
     NMCC=  18   NAOS=   0   NFZV=   0
                 NBOS=   0
                 NALP=   0
                 NVAL=   1

 THE MAXIMUM ELECTRON EXCITATION WILL BE   2

 SYMMETRIES FOR THE  18 CORE,   2 ACTIVE,   0 EXTERNAL MO-S ARE
     CORE= A     A     A     A     A     A     A     A     A     A   
           A     A     A     A     A     A     A     A   
   ACTIVE= A     A   
           DOC   VAL 

 MOLECULAR CHARGE          =    1
 NUMBER OF ALPHA ELECTRONS =   19
 NUMBER OF  BETA ELECTRONS =   19

 THE ELECTRONIC STATE IS  1-A   

 THE DISTINCT ROW TABLE HAS         5 ROWS.
  THE WAVEFUNCTION CONTAINS         3 WALKS (CSF-S).


          DETERMINANT CONTRIBUTION TO CSF'S (BETA IS MINUS)
          -------------------------------------------------
 CASE VECTOR =       1
 14

 FOR MS=S-0
 CSF      1: C(  1)= 1.000000 :   19-19
 CASE VECTOR =       2
 23

 FOR MS=S-0
 CSF      2: C(  1)=-0.707107 :  -20 19
             C(  2)= 0.707107 :   20-19
 CASE VECTOR =       3
 41

 FOR MS=S-0
 CSF      3: C(  1)= 1.000000 :   20-20

 TOTAL NUMBER OF INTEGRALS =          9
 NUMBER OF INTEGRALS/GROUP =          9
 NUMBER OF INTEGRAL GROUPS =          1
 MAXIMUM RECORD SIZES ARE     200 FOR UNIT 11      22 FOR UNIT 12
                            30001 FOR UNIT 15   30001 FOR UNIT 16
 ...... END OF -DRT- GENERATION ...... 
 STEP CPU TIME =     0.00 TOTAL CPU TIME =        6.4 (    0.1 MIN)
 TOTAL WALL CLOCK TIME=        8.0 SECONDS, CPU UTILIZATION IS  80.50%
 OPENING FILE DAFL30 WITH      81 LOGICAL RECORDS OF   35344 WORDS
 WITH A MAXIMUM OF        1458 PHYSICAL RECORDS OF    2048 WORDS

          ------------------------------
          CASSCF INTEGRAL TRANSFORMATION
          ------------------------------
 AO INTEGRALS WILL BE READ IN FROM DISK...
 MEMORY WHICH WOULD BE NEEDED FOR SINGLE PASS TRANSFORMATION =    6887677

 ----- CHOOSING THREE STEPS TRANSFORMATION -----
 NUMBER OF WORDS USED      =     955807
 NUMBER OF WORDS AVAILABLE =    1000000
 NUMBER OF PASSES          =          9
 PASS #   1 COMPLETED IN         0.9 SECONDS.
 PASS #   2 COMPLETED IN         0.5 SECONDS.
 PASS #   3 COMPLETED IN         0.5 SECONDS.
 PASS #   4 COMPLETED IN         0.5 SECONDS.
 PASS #   5 COMPLETED IN         0.5 SECONDS.
 PASS #   6 COMPLETED IN         0.5 SECONDS.
 PASS #   7 COMPLETED IN         0.5 SECONDS.
 PASS #   8 COMPLETED IN         0.4 SECONDS.
 PASS #   9 COMPLETED IN         0.5 SECONDS.

 ----- NUCLEAR REPULSION ENERGY =    165.86408116
 ----- FROZEN CORE ENERGY       =   -390.90364224

 ... SYMMETRY ...           CPU =    0.01
 ... (PQ|RS) -> (PQ|KL) ... CPU =    4.67
 ... (PQ|KL) -> (IJ|KL) ... CPU =    0.00

 NUMBER OF (PQ|KL) INTEGRALS WRITTEN      31256
 NUMBER OF (IJ|KL) INTEGRALS WRITTEN          5
 ..... END OF CAS INTEGRAL TRANSFORMATION .....
 STEP CPU TIME =     4.68 TOTAL CPU TIME =       11.1 (    0.2 MIN)
 TOTAL WALL CLOCK TIME=       12.0 SECONDS, CPU UTILIZATION IS  92.67%

          ------------------------
          GUGA-CI INTEGRAL SORTING
          ------------------------

    630017 WORDS NEEDED TO SORT              9 GUGA INTEGRALS IN MEMORY
   1000000 WORDS ARE AVAILABLE
 CHOOSING IN-MEMORY SORTING...
 IN CORE ALGORITHM SORTED              3 NON-ZERO 1E- INTEGRALS
 IN CORE ALGORITHM SORTED              5 NON-ZERO 2E- INTEGRALS
 ...... END OF INTEGRAL SORTING ...... 
 STEP CPU TIME =     0.00 TOTAL CPU TIME =       11.1 (    0.2 MIN)
 TOTAL WALL CLOCK TIME=       12.0 SECONDS, CPU UTILIZATION IS  92.67%

 -------------------------     ---------------------------------------
 ENERGY MATRIX CALCULATION     WRITTEN BY B.R.BROOKS,W.D.LAIDIG,P.SAXE
 -------------------------     ---------------------------------------

 COMPUTING THE HAMILTONIAN FOR THE         3 CSF-S...

           8 IS THE TOTAL NUMBER OF GENERATED LOOPS
           8 WERE CREATED BY THE LOOP-DRIVEN ALGORITHM
           0 WERE CREATED IMPLICITLY

           6 IS THE TOTAL NUMBER OF PROCESSED LOOPS
           5     DIAGONAL LOOPS ARE STORED ON WORK15 IN     1 BUFFERS OF  10000 ELEMENTS.
           1 OFF DIAGONAL LOOPS ARE STORED ON WORK16 IN     1 BUFFERS OF  10000 ELEMENTS.
 ...... END OF ENERGY MATRIX CALCULATION ...... 
 STEP CPU TIME =     0.00 TOTAL CPU TIME =       11.1 (    0.2 MIN)
 TOTAL WALL CLOCK TIME=       12.0 SECONDS, CPU UTILIZATION IS  92.67%

          -----------------------------------------
          DAVIDSON METHOD CI-MATRIX DIAGONALIZATION
                   WRITTEN BY STEVE ELBERT
          -----------------------------------------
 NUMBER OF STATES REQUESTED =     2
 MAX. NUMB. OF EXPAN. VEC   =    30
 MAX. NUMB. IMPROVED STATES =     2
 MAX. NUMB. OF ITERATIONS   =    50
 CONVERGENCE CRITERION      =    1.0E-05

 CHOOSING TO SOLVE SECULAR EQUATION IN MEMORY
 NUMBER OF WORDS AVAILABLE =    1000000
 NUMBER OF WORDS USED      =      31026
 ENERGY MATRIX BUFFER SIZE =      10000
 SOLUTION FOUND WITH DIRECT METHOD

 STATE #    1  ENERGY =    -226.409692743

      CSF      COEF    OCCUPANCY (IGNORING CORE)
      ---      ----    --------- --------- -----
        1    0.994071  20
        3   -0.108736  02

 STATE #    2  ENERGY =    -226.149114720

      CSF      COEF    OCCUPANCY (IGNORING CORE)
      ---      ----    --------- --------- -----
        2    1.000000  11

 RENORMALIZED DAVIDSON CORRECTION FOR     1-REFERENCE CI.
 C0SQ= 0.988176 EREF=     -226.403849 E-E(REF)=   0.005844 E(Q)=   0.000070
 GIVES A E(SD+Q) ESTIMATE OF     -226.4097626610
 ...... END OF CI-MATRIX DIAGONALIZATION ......
 STEP CPU TIME =     0.00 TOTAL CPU TIME =       11.1 (    0.2 MIN)
 TOTAL WALL CLOCK TIME=       12.0 SECONDS, CPU UTILIZATION IS  92.67%

          -------------------------------------
          2-PARTICLE DENSITY MATRIX CALCULATION
          -------------------------------------
 2 BODY DENSITY IS AN AVERAGE OF  2 STATE(S).
   STATE    WEIGHT          ENERGY
     1    0.500000     -226.4096927433
     2    0.500000     -226.1491147197
            8 -DM2- LOOPS WERE GENERATED
            8 WERE CREATED BY THE LOOP-DRIVEN ALGORITHM
            0 WERE CREATED IMPLICITLY
          1 RECORDS OF LENGTH600000 WRITTEN TO FILE 15
 ...... END OF 2-PARTICLE DENSITY MATRIX CALCULATION ......
 STEP CPU TIME =     0.01 TOTAL CPU TIME =       11.1 (    0.2 MIN)
 TOTAL WALL CLOCK TIME=       12.0 SECONDS, CPU UTILIZATION IS  92.75%

          ----------------------------------
          2-PARTICLE DENSITY MATRIX LABELING
          ----------------------------------
     646608 WORDS NEEDED TO LABEL DM2 MATRIX
          1 RECORDS OF LENGTH600000  READ FROM FILE 15
          1 RECORDS OF LENGTH 15000 WRITTEN TO FILE 16
 ...... END OF 2-PARTICLE DENSITY MATRIX LABELING ......
 STEP CPU TIME =     0.00 TOTAL CPU TIME =       11.1 (    0.2 MIN)
 TOTAL WALL CLOCK TIME=       12.0 SECONDS, CPU UTILIZATION IS  92.75%

          --------------
          -DM2- ORDERING
          --------------
      30010 WORDS NEEDED (   1000000 AVAILABLE) TO ORDER DM2 IN MEMORY
 CHOOSING IN MEMORY ORDERING...
                               1 RECORDS OF LENGTH 15000  READ FROM FILE 16
          4 DM2 VALUES IN      1 RECORDS OF LENGTH 15000 WRITTEN TO FILE 15
 ...... END OF -DM2- ORDERING ...... 
 STEP CPU TIME =     0.00 TOTAL CPU TIME =       11.1 (    0.2 MIN)
 TOTAL WALL CLOCK TIME=       12.0 SECONDS, CPU UTILIZATION IS  92.75%

          --------------------------------------
          APPROXIMATE SECOND-ORDER MCSCF PROGRAM
          --------------------------------------
          PROGRAM WRITTEN BY G.CHABAN, A.MARQUEZ, AND M.DUPUIS

  NUMBER OF WORDS NEEDED     =     284362
  NUMBER AVAILABLE           =    1000000

 ----- GAMMA(IJKL)*(PQ|KL) PRODUCTS ----- CPU TIME =      0.000
 ----- ORBITAL SYMMETRY             ----- CPU TIME =      0.000
 ----- FOCK OPERATORS CONSTRUCTION  ----- CPU TIME =      0.730
 ----- WARNING : CORE-ACTIVE GAP    =    0.42280
 ----- WARNING : ACTIVE-VIRTUAL GAP =    0.42789
     MICIT =   1 ASYMM =    0.030630 ROTMAX =    0.014295
 ----- EFFECTIVE FOCK + ROTATE ORBS ----- CPU TIME =      0.010
     MICIT =   2 ASYMM =    0.021893 ROTMAX =    0.003367
     MICIT =   3 ASYMM =    0.020194 ROTMAX =    0.005084
     MICIT =   4 ASYMM =    0.017622 ROTMAX =    0.005476
     MICIT =   5 ASYMM =    0.014839 ROTMAX =    0.004920
 ..... DONE WITH CASSCF ORBITAL UPDATE .....
 STEP CPU TIME =     0.86 TOTAL CPU TIME =       12.0 (    0.2 MIN)
 TOTAL WALL CLOCK TIME=       12.0 SECONDS, CPU UTILIZATION IS  99.92%

 ITER     TOTAL ENERGY      DEL(E)  LAGRANGIAN ASYMMETRY   SQCDF  MICIT   DAMP
   1     -226.279403731 -0.279403731  0.030630   41   19 1.429E-02  5   0.0000
       ----------START APPROXIMATE SECOND ORDER MCSCF----------
   2     -226.286381265 -0.006977533  0.008022   20   18 2.500E-03  1   0.0000
   3     -226.287419864 -0.001038599  0.004693   41   19 1.048E-03  1   0.0000
   4     -226.287671227 -0.000251364  0.001609   20   18 8.292E-05  1   0.0000
   5     -226.287700653 -0.000029426  0.001526   20   18 3.272E-05  1   0.0000
   6     -226.287709277 -0.000008624  0.000284   31   18 4.665E-06  1   0.0000
   7     -226.287710693 -0.000001416  0.000144   31   18 3.081E-06  1   0.0000
   8     -226.287711102 -0.000000409  0.000032   31   20 1.711E-07  1   0.0000
   9     -226.287711133 -0.000000030  0.000017   42   18 2.452E-08  1   0.0000
  10     -226.287711137 -0.000000005  0.000006   41   16 4.618E-10  1   0.0000

          --------------------
          LAGRANGIAN CONVERGED
          --------------------

 FINAL MCSCF ENERGY IS     -226.2877111374 AFTER  10 ITERATIONS

 -MCCI- BASED ON OPTIMIZED ORBITALS
 ----------------------------------

 PLEASE NOTE: IF THE ACTIVE ORBITALS ARE CANONICALIZED BELOW,
 THE FOLLOWING CI EXPANSION COEFFICIENTS AND THE DENSITY DO NOT
 CORRESPOND TO THE PRINTED ORBITALS.  THE PRINTED EXPANSIONS MATCH
 THE ORBITALS USED DURING THE LAST ITERATION.  IF YOU WISH TO SEE
 CI EXPANSIONS BASED ON THE CANONICAL (OR NATURAL) ORBITALS, YOU
 MUST RUN A CI CALCULATION WITH THAT ORBITAL CHOICE READ IN $VEC.

 STATE #    1  ENERGY =    -226.398439833

      CSF      COEF    OCCUPANCY (IGNORING CORE)
      ---      ----    --------- --------- -----
        1    0.995644  20
        2    0.000000  11
        3   -0.093233  02

 STATE #    2  ENERGY =    -226.176982441

      CSF      COEF    OCCUPANCY (IGNORING CORE)
      ---      ----    --------- --------- -----
        1    0.000000  20
        2    1.000000  11
        3    0.000000  02

 DENSITY MATRIX OVER ACTIVE MO-S

             1           2

    1    1.4913076
    2    0.0000000   0.5086924

 FORMING THE "STANDARD FOCK OPERATOR" USING INTEGRALS FROM DISK...
    18 FILLED,    2 ACTIVE, AND  158 VIRTUAL ORBITALS  WILL BE CANONICALIZED

          ----------------------
          MCSCF NATURAL ORBITALS
          ----------------------

                      1          2          3          4          5

                  -15.8001   -15.8001   -11.4988   -11.4988   -11.4345

    1  H  1  S   -0.000001  -0.000119   0.000000   0.000179   0.000390
    2  H  1  S   -0.000011  -0.001367   0.000009   0.004514   0.005108
    3  H  1  X    0.000000   0.000000   0.000000   0.000000   0.000000
    4  H  1  Y    0.000008   0.000000  -0.000007   0.000000   0.000000
    5  H  1  Z    0.000000   0.000020   0.000000  -0.000206   0.000112
    6  H  1  S   -0.000014  -0.001665   0.000004   0.002154  -0.002350
    7  H  1  X    0.000000   0.000000   0.000000   0.000000   0.000000
    8  H  1  Y    0.000666  -0.000005  -0.001504   0.000003   0.000000
    9  H  1  Z    0.000002   0.000294  -0.000003  -0.001494  -0.001799
   10  H  2  S   -0.000181  -0.000208  -0.000329   0.000278  -0.000076
   11  H  2  S    0.004753   0.000774   0.001847   0.006446   0.002111
   12  H  2  X    0.000000   0.000000   0.000000   0.000000   0.000000
   13  H  2  Y    0.000019  -0.000047   0.000088   0.000033   0.000040
   14  H  2  Z   -0.000082  -0.000121   0.000016  -0.000089   0.000033
   15  H  2  S   -0.000442   0.000176   0.001819   0.000896   0.001611
   16  H  2  X    0.000000   0.000000   0.000000   0.000000   0.000000
   17  H  2  Y    0.000426   0.000279  -0.001454   0.000768   0.000304
   18  H  2  Z    0.001467   0.000527   0.000264   0.002116   0.000986
   19  H  3  S    0.000177  -0.000211   0.000330   0.000277  -0.000076
   20  H  3  S   -0.004740   0.000851  -0.001822   0.006453   0.002111
   21  H  3  X    0.000000   0.000000   0.000000   0.000000   0.000000
   22  H  3  Y    0.000020   0.000047   0.000087  -0.000033  -0.000040
   23  H  3  Z    0.000080  -0.000122  -0.000017  -0.000089   0.000033
   24  H  3  S    0.000445   0.000168  -0.001816   0.000903   0.001611
   25  H  3  X    0.000000   0.000000   0.000000   0.000000   0.000000
   26  H  3  Y    0.000421  -0.000286  -0.001457  -0.000763  -0.000304
   27  H  3  Z   -0.001458   0.000551  -0.000255   0.002117   0.000986
   28  H  4  S    0.000127   0.000154   0.000127  -0.000154  -0.000127
   29  H  4  S    0.001167   0.002388  -0.000385  -0.002133   0.001109
   30  H  4  X    0.000000   0.000000   0.000000   0.000000   0.000000
   31  H  4  Y   -0.000025   0.000021  -0.000024   0.000005   0.000100
   32  H  4  Z    0.000197   0.000195   0.000146  -0.000218  -0.000094
   33  H  4  S   -0.000702  -0.000282   0.000902  -0.000873  -0.000386
   34  H  4  X    0.000000   0.000000   0.000000   0.000000   0.000000
   35  H  4  Y    0.000126  -0.000237  -0.000149   0.000405  -0.000292
   36  H  4  Z   -0.000411  -0.000707   0.000169   0.000669  -0.000209
   37  H  5  S   -0.000124   0.000156  -0.000128  -0.000154  -0.000127
   38  H  5  S   -0.001128   0.002407   0.000377  -0.002135   0.001109
   39  H  5  X    0.000000   0.000000   0.000000   0.000000   0.000000
   40  H  5  Y   -0.000026  -0.000021  -0.000024  -0.000005  -0.000100
   41  H  5  Z   -0.000194   0.000199  -0.000147  -0.000218  -0.000094
   42  H  5  S    0.000697  -0.000293  -0.000905  -0.000870  -0.000386
   43  H  5  X    0.000000   0.000000   0.000000   0.000000   0.000000
   44  H  5  Y    0.000130   0.000235  -0.000151  -0.000404   0.000292
   45  H  5  Z    0.000399  -0.000713  -0.000167   0.000670  -0.000209
   46  H  6  S    0.000111   0.000083   0.000130  -0.000203  -0.000263
   47  H  6  S    0.002446   0.002879  -0.001586   0.001117   0.000324
   48  H  6  X    0.000000   0.000000   0.000000   0.000000   0.000000
   49  H  6  Y    0.000179   0.000155   0.000156  -0.000146   0.000033
   50  H  6  Z   -0.000132  -0.000147  -0.000082   0.000116   0.000061
   51  H  6  S   -0.000292  -0.000438   0.000812  -0.000437   0.000559
   52  H  6  X    0.000000   0.000000   0.000000   0.000000   0.000000
   53  H  6  Y   -0.000547  -0.000802   0.000451  -0.000335  -0.000323
   54  H  6  Z    0.000473   0.000520  -0.000105   0.000122   0.000252
   55  H  7  S   -0.000109   0.000085  -0.000131  -0.000202  -0.000263
   56  H  7  S   -0.002398   0.002919   0.001590   0.001111   0.000324
   57  H  7  X    0.000000   0.000000   0.000000   0.000000   0.000000
   58  H  7  Y    0.000176  -0.000158   0.000157   0.000145  -0.000033
   59  H  7  Z    0.000129  -0.000149   0.000082   0.000116   0.000061
   60  H  7  S    0.000285  -0.000443  -0.000814  -0.000434   0.000559
   61  H  7  X    0.000000   0.000000   0.000000   0.000000   0.000000
   62  H  7  Y   -0.000534   0.000811   0.000452   0.000333   0.000323
   63  H  7  Z   -0.000464   0.000528   0.000106   0.000122   0.000252
   64  C  8  S   -0.000001  -0.000081   0.000026   0.013184   1.004055
   65  C  8  S   -0.000001  -0.000157   0.000000  -0.000107   0.008178
   66  C  8  S    0.000092   0.011227   0.000048   0.024618  -0.035601
   67  C  8  X    0.000000   0.000000   0.000000   0.000000   0.000000
   68  C  8  Y   -0.000137   0.000001  -0.000170   0.000000   0.000000
   69  C  8  Z    0.000000   0.000041   0.000000  -0.000040  -0.000423
   70  C  8  X    0.000000   0.000000   0.000000   0.000000   0.000000
   71  C  8  Y    0.005699  -0.000047  -0.041038   0.000081   0.000000
   72  C  8  Z   -0.000045  -0.005447  -0.000026  -0.013050   0.003460
   73  C  8 XX   -0.000001  -0.000067   0.000000   0.000220  -0.000609
   74  C  8 YY   -0.000001  -0.000089   0.000000   0.000119   0.000466
   75  C  8 ZZ    0.000001   0.000156  -0.000001  -0.000339   0.000143
   76  C  8 XY    0.000000   0.000000   0.000000   0.000000   0.000000
   77  C  8 XZ    0.000000   0.000000   0.000000   0.000000   0.000000
   78  C  8 YZ   -0.000007   0.000000   0.000004   0.000000   0.000000
   79  C  8  S   -0.000090  -0.010980   0.000014   0.007200  -0.047287
   80  C  8  X    0.000000   0.000000   0.000000   0.000000   0.000000
   81  C  8  Y   -0.001377   0.000011  -0.005633   0.000011   0.000000
   82  C  8  Z    0.000022   0.002690  -0.000006  -0.002862   0.007410
   83  C  8 XX    0.000007   0.000876   0.000000   0.000055   0.004249
   84  C  8 YY   -0.000030  -0.003657  -0.000005  -0.002624  -0.006922
   85  C  8 ZZ    0.000023   0.002780   0.000005   0.002569   0.002673
   86  C  8 XY    0.000000   0.000000   0.000000   0.000000   0.000000
   87  C  8 XZ    0.000000   0.000000   0.000000   0.000000   0.000000
   88  C  8 YZ   -0.002175   0.000018   0.010750  -0.000021   0.000000
   89  C  9  S    0.000172   0.000231  -0.708813   0.710976  -0.009833
   90  C  9  S    0.000231   0.000327  -0.005894   0.004956  -0.000236
   91  C  9  S    0.000732   0.005153   0.041991  -0.014773   0.013859
   92  C  9  X    0.000000   0.000000   0.000000   0.000000   0.000000
   93  C  9  Y    0.000244   0.000200  -0.000549   0.000681  -0.000095
   94  C  9  Z    0.000081   0.000067  -0.000403   0.000391   0.000042
   95  C  9  X    0.000000   0.000000   0.000000   0.000000   0.000000
   96  C  9  Y    0.010190   0.010205  -0.021523   0.012098  -0.005041
   97  C  9  Z    0.003606   0.004796   0.011851   0.003673   0.007933
   98  C  9 XX    0.000009   0.000037   0.000406  -0.000678   0.000146
   99  C  9 YY   -0.000112  -0.000245  -0.000363   0.000654  -0.000119
  100  C  9 ZZ    0.000104   0.000208  -0.000043   0.000025  -0.000027
  101  C  9 XY    0.000000   0.000000   0.000000   0.000000   0.000000
  102  C  9 XZ    0.000000   0.000000   0.000000   0.000000   0.000000
  103  C  9 YZ   -0.000094  -0.000162  -0.000083   0.000208   0.000189
  104  C  9  S    0.007425   0.015659   0.011266  -0.003907   0.023505
  105  C  9  X    0.000000   0.000000   0.000000   0.000000   0.000000
  106  C  9  Y    0.003880   0.001503  -0.006700   0.002522  -0.004909
  107  C  9  Z    0.002219   0.001632   0.001671   0.000633   0.004129
  108  C  9 XX   -0.001087  -0.000760  -0.002638   0.001480  -0.000625
  109  C  9 YY    0.001488  -0.000334   0.003277  -0.002992  -0.000881
  110  C  9 ZZ   -0.000402   0.001093  -0.000639   0.001513   0.001506
  111  C  9 XY    0.000000   0.000000   0.000000   0.000000   0.000000
  112  C  9 XZ    0.000000   0.000000   0.000000   0.000000   0.000000
  113  C  9 YZ    0.004147   0.002503  -0.005966   0.003735  -0.000490
  114  C 10  S   -0.000168   0.000233   0.711610   0.708177  -0.009833
  115  C 10  S   -0.000226   0.000331   0.005913   0.004932  -0.000236
  116  C 10  S   -0.000647   0.005165  -0.042049  -0.014607   0.013859
  117  C 10  X    0.000000   0.000000   0.000000   0.000000   0.000000
  118  C 10  Y    0.000241  -0.000204  -0.000552  -0.000679   0.000095
  119  C 10  Z   -0.000080   0.000068   0.000405   0.000389   0.000042
  120  C 10  X    0.000000   0.000000   0.000000   0.000000   0.000000
  121  C 10  Y    0.010022  -0.010370  -0.021570  -0.012013   0.005041
  122  C 10  Z   -0.003527   0.004854  -0.011837   0.003720   0.007933
  123  C 10 XX   -0.000008   0.000037  -0.000409  -0.000677   0.000146
  124  C 10 YY    0.000108  -0.000246   0.000365   0.000652  -0.000119
  125  C 10 ZZ   -0.000100   0.000210   0.000043   0.000024  -0.000027
  126  C 10 XY    0.000000   0.000000   0.000000   0.000000   0.000000
  127  C 10 XZ    0.000000   0.000000   0.000000   0.000000   0.000000
  128  C 10 YZ   -0.000092   0.000164  -0.000084  -0.000207  -0.000189
  129  C 10  S   -0.007167   0.015778  -0.011281  -0.003862   0.023505
  130  C 10  X    0.000000   0.000000   0.000000   0.000000   0.000000
  131  C 10  Y    0.003855  -0.001566  -0.006710  -0.002495   0.004909
  132  C 10  Z   -0.002192   0.001668  -0.001668   0.000639   0.004129
  133  C 10 XX    0.001074  -0.000777   0.002644   0.001469  -0.000625
  134  C 10 YY   -0.001494  -0.000309  -0.003289  -0.002979  -0.000881
  135  C 10 ZZ    0.000420   0.001086   0.000645   0.001510   0.001506
  136  C 10 XY    0.000000   0.000000   0.000000   0.000000   0.000000
  137  C 10 XZ    0.000000   0.000000   0.000000   0.000000   0.000000
  138  C 10 YZ    0.004105  -0.002570  -0.005981  -0.003712   0.000490
  139  N 11  S    0.714914   0.703280  -0.000050   0.000118  -0.000034
  140  N 11  S    0.003696   0.003581  -0.000511   0.000615  -0.000087
  141  N 11  S   -0.016809  -0.015498   0.003520  -0.005249  -0.000901
  142  N 11  X    0.000000   0.000000   0.000000   0.000000   0.000000
  143  N 11  Y   -0.000279  -0.000277   0.000223  -0.000206   0.000053
  144  N 11  Z   -0.000093  -0.000104   0.000095  -0.000066   0.000009
  145  N 11  X    0.000000   0.000000   0.000000   0.000000   0.000000
  146  N 11  Y    0.004250   0.003657  -0.001087   0.003495   0.000708
  147  N 11  Z    0.001181   0.000857  -0.000674   0.000680  -0.000885
  148  N 11 XX   -0.000191  -0.000208  -0.000174   0.000244  -0.000001
  149  N 11 YY    0.000105   0.000109   0.000067  -0.000109   0.000019
  150  N 11 ZZ    0.000086   0.000099   0.000107  -0.000135  -0.000018
  151  N 11 XY    0.000000   0.000000   0.000000   0.000000   0.000000
  152  N 11 XZ    0.000000   0.000000   0.000000   0.000000   0.000000
  153  N 11 YZ   -0.000023   0.000017   0.000006  -0.000083   0.000002
  154  N 11  S   -0.012176  -0.013597   0.007233  -0.003754  -0.003172
  155  N 11  X    0.000000   0.000000   0.000000   0.000000   0.000000
  156  N 11  Y    0.001595   0.002327  -0.001189   0.001096   0.000949
  157  N 11  Z    0.000969   0.000952  -0.001223   0.001079  -0.000860
  158  N 11 XX    0.000450   0.000470   0.000118  -0.000003  -0.000199
  159  N 11 YY   -0.000819  -0.000622   0.000321  -0.000977  -0.000245
  160  N 11 ZZ    0.000369   0.000152  -0.000440   0.000981   0.000444
  161  N 11 XY    0.000000   0.000000   0.000000   0.000000   0.000000
  162  N 11 XZ    0.000000   0.000000   0.000000   0.000000   0.000000
  163  N 11 YZ   -0.000204  -0.000330   0.000783  -0.000684  -0.000252
  164  N 12  S   -0.703314   0.714880   0.000051   0.000118  -0.000034
  165  N 12  S   -0.003637   0.003641   0.000513   0.000613  -0.000087
  166  N 12  S    0.016554  -0.015771  -0.003541  -0.005235  -0.000901
  167  N 12  X    0.000000   0.000000   0.000000   0.000000   0.000000
  168  N 12  Y   -0.000274   0.000282   0.000224   0.000205  -0.000053
  169  N 12  Z    0.000091  -0.000105  -0.000095  -0.000066   0.000009
  170  N 12  X    0.000000   0.000000   0.000000   0.000000   0.000000
  171  N 12  Y    0.004190  -0.003726  -0.001101  -0.003491  -0.000708
  172  N 12  Z   -0.001166   0.000877   0.000677   0.000677  -0.000885
  173  N 12 XX    0.000188  -0.000211   0.000175   0.000244  -0.000001
  174  N 12 YY   -0.000103   0.000111  -0.000068  -0.000109   0.000019
  175  N 12 ZZ   -0.000085   0.000101  -0.000107  -0.000135  -0.000018
  176  N 12 XY    0.000000   0.000000   0.000000   0.000000   0.000000
  177  N 12 XZ    0.000000   0.000000   0.000000   0.000000   0.000000
  178  N 12 YZ   -0.000024  -0.000017   0.000006   0.000083  -0.000002
  179  N 12  S    0.011952  -0.013794  -0.007248  -0.003725  -0.003172
  180  N 12  X    0.000000   0.000000   0.000000   0.000000   0.000000
  181  N 12  Y    0.001557  -0.002352  -0.001193  -0.001092  -0.000949
  182  N 12  Z   -0.000953   0.000967   0.001227   0.001074  -0.000860
  183  N 12 XX   -0.000442   0.000477  -0.000118  -0.000003  -0.000199
  184  N 12 YY    0.000808  -0.000636  -0.000325  -0.000976  -0.000245
  185  N 12 ZZ   -0.000366   0.000158   0.000443   0.000979   0.000444
  186  N 12 XY    0.000000   0.000000   0.000000   0.000000   0.000000
  187  N 12 XZ    0.000000   0.000000   0.000000   0.000000   0.000000
  188  N 12 YZ   -0.000199   0.000334   0.000786   0.000680   0.000252

                      6          7          8          9         10

                   -1.4568    -1.4462    -1.2512    -1.0866    -1.0093

    1  H  1  S    0.034490   0.000000  -0.101834   0.000000  -0.169119
    2  H  1  S    0.066299   0.000000  -0.115848   0.000000  -0.216304
    3  H  1  X    0.000000   0.000000   0.000000   0.000000   0.000000
    4  H  1  Y    0.000000   0.000341   0.000000   0.005552   0.000000
    5  H  1  Z   -0.006294   0.000000   0.014646   0.000000   0.015523
    6  H  1  S    0.001763   0.000000   0.033136   0.000000  -0.003696
    7  H  1  X    0.000000   0.000000   0.000000   0.000000   0.000000
    8  H  1  Y    0.000000   0.014508   0.000000  -0.020640   0.000000
    9  H  1  Z   -0.017593   0.000000   0.018338   0.000000   0.044014
   10  H  2  S    0.046907  -0.038644  -0.063279   0.120762   0.163901
   11  H  2  S    0.038249  -0.039542  -0.001359   0.133950   0.113470
   12  H  2  X    0.000000   0.000000   0.000000   0.000000   0.000000
   13  H  2  Y    0.000998  -0.000920   0.002900  -0.000518   0.002405
   14  H  2  Z    0.008901  -0.006882  -0.007990   0.012917   0.014635
   15  H  2  S    0.005954   0.006114  -0.019102  -0.009427   0.002700
   16  H  2  X    0.000000   0.000000   0.000000   0.000000   0.000000
   17  H  2  Y   -0.013395   0.019689  -0.009988  -0.002219   0.002240
   18  H  2  Z    0.009968  -0.011815   0.013775   0.020651   0.017422
   19  H  3  S    0.046907   0.038644  -0.063279  -0.120762   0.163901
   20  H  3  S    0.038249   0.039542  -0.001359  -0.133950   0.113470
   21  H  3  X    0.000000   0.000000   0.000000   0.000000   0.000000
   22  H  3  Y   -0.000998  -0.000920  -0.002900  -0.000518  -0.002405
   23  H  3  Z    0.008901   0.006882  -0.007990  -0.012917   0.014635
   24  H  3  S    0.005954  -0.006114  -0.019102   0.009427   0.002700
   25  H  3  X    0.000000   0.000000   0.000000   0.000000   0.000000
   26  H  3  Y    0.013395   0.019689   0.009988  -0.002219  -0.002240
   27  H  3  Z    0.009968   0.011815   0.013775  -0.020651   0.017422
   28  H  4  S    0.101404  -0.108804   0.074179  -0.130641  -0.173911
   29  H  4  S    0.043680  -0.047316  -0.014108  -0.011177  -0.054487
   30  H  4  X    0.000000   0.000000   0.000000   0.000000   0.000000
   31  H  4  Y   -0.004036   0.004328  -0.002335  -0.000446   0.000143
   32  H  4  Z   -0.017509   0.018893  -0.012282   0.017706   0.018442
   33  H  4  S   -0.000580   0.002520   0.000406  -0.000535   0.009294
   34  H  4  X    0.000000   0.000000   0.000000   0.000000   0.000000
   35  H  4  Y   -0.002546   0.005459  -0.004220   0.008756   0.001135
   36  H  4  Z   -0.013577   0.013882   0.003951   0.000419   0.013237
   37  H  5  S    0.101404   0.108804   0.074179   0.130641  -0.173911
   38  H  5  S    0.043680   0.047316  -0.014108   0.011177  -0.054487
   39  H  5  X    0.000000   0.000000   0.000000   0.000000   0.000000
   40  H  5  Y    0.004036   0.004328   0.002335  -0.000446  -0.000143
   41  H  5  Z   -0.017509  -0.018893  -0.012282  -0.017706   0.018442
   42  H  5  S   -0.000580  -0.002520   0.000406   0.000535   0.009294
   43  H  5  X    0.000000   0.000000   0.000000   0.000000   0.000000
   44  H  5  Y    0.002546   0.005459   0.004220   0.008756  -0.001135
   45  H  5  Z   -0.013577  -0.013882   0.003951  -0.000419   0.013237
   46  H  6  S    0.100049  -0.108968   0.093729  -0.138181  -0.008242
   47  H  6  S    0.005929  -0.021379   0.045987  -0.030467   0.007599
   48  H  6  X    0.000000   0.000000   0.000000   0.000000   0.000000
   49  H  6  Y   -0.015896   0.017176  -0.010434   0.012644  -0.000303
   50  H  6  Z    0.008732  -0.009908   0.009610  -0.012967  -0.004496
   51  H  6  S   -0.003357   0.001986  -0.005160  -0.001421  -0.006512
   52  H  6  X    0.000000   0.000000   0.000000   0.000000   0.000000
   53  H  6  Y    0.001709   0.005114  -0.014335   0.013147   0.007855
   54  H  6  Z    0.001592  -0.003432   0.005799   0.006171   0.013790
   55  H  7  S    0.100049   0.108968   0.093729   0.138181  -0.008242
   56  H  7  S    0.005929   0.021380   0.045987   0.030467   0.007599
   57  H  7  X    0.000000   0.000000   0.000000   0.000000   0.000000
   58  H  7  Y    0.015896   0.017176   0.010434   0.012644   0.000303
   59  H  7  Z    0.008731   0.009908   0.009610   0.012967  -0.004496
   60  H  7  S   -0.003357  -0.001986  -0.005160   0.001421  -0.006512
   61  H  7  X    0.000000   0.000000   0.000000   0.000000   0.000000
   62  H  7  Y   -0.001709   0.005114   0.014335   0.013147  -0.007855
   63  H  7  Z    0.001592   0.003432   0.005799  -0.006171   0.013790
   64  C  8  S   -0.008290   0.000000   0.022987   0.000000   0.010293
   65  C  8  S    0.099463   0.000000  -0.298083   0.000000  -0.174771
   66  C  8  S   -0.249645   0.000000  -0.204928   0.000000  -0.229782
   67  C  8  X    0.000000   0.000000   0.000000   0.000000   0.000000
   68  C  8  Y    0.000000  -0.055900   0.000000   0.197733   0.000000
   69  C  8  Z   -0.025172   0.000000   0.081064   0.000000  -0.092514
   70  C  8  X    0.000000   0.000000   0.000000   0.000000   0.000000
   71  C  8  Y    0.000000   0.220176   0.000000  -0.171555   0.000000
   72  C  8  Z    0.081961   0.000000  -0.022413   0.000000   0.087886
   73  C  8 XX   -0.004694   0.000000   0.013050   0.000000   0.003233
   74  C  8 YY    0.012382   0.000000  -0.011039   0.000000   0.001109
   75  C  8 ZZ   -0.007687   0.000000  -0.002011   0.000000  -0.004341
   76  C  8 XY    0.000000   0.000000   0.000000   0.000000   0.000000
   77  C  8 XZ    0.000000   0.000000   0.000000   0.000000   0.000000
   78  C  8 YZ    0.000000   0.006593   0.000000  -0.022823   0.000000
   79  C  8  S   -0.020358   0.000000   0.416000   0.000000   0.306751
   80  C  8  X    0.000000   0.000000   0.000000   0.000000   0.000000
   81  C  8  Y    0.000000  -0.025492   0.000000   0.031572   0.000000
   82  C  8  Z   -0.006658   0.000000  -0.064465   0.000000  -0.027491
   83  C  8 XX   -0.011398   0.000000  -0.002990   0.000000  -0.002037
   84  C  8 YY    0.063657   0.000000  -0.073612   0.000000  -0.059096
   85  C  8 ZZ   -0.052259   0.000000   0.076601   0.000000   0.061133
   86  C  8 XY    0.000000   0.000000   0.000000   0.000000   0.000000
   87  C  8 XZ    0.000000   0.000000   0.000000   0.000000   0.000000
   88  C  8 YZ    0.000000  -0.073919   0.000000   0.089828   0.000000
   89  C  9  S   -0.015466   0.013923   0.007237  -0.007802  -0.001811
   90  C  9  S    0.159941  -0.140757  -0.155332   0.241354   0.135803
   91  C  9  S    0.045443  -0.188962  -0.105370   0.363112   0.164198
   92  C  9  X    0.000000   0.000000   0.000000   0.000000   0.000000
   93  C  9  Y    0.062576  -0.088530   0.156129  -0.023329   0.120515
   94  C  9  Z    0.046839  -0.043188  -0.026860   0.011439  -0.134128
   95  C  9  X    0.000000   0.000000   0.000000   0.000000   0.000000
   96  C  9  Y   -0.142735   0.171268   0.008262  -0.127606  -0.003928
   97  C  9  Z   -0.026691  -0.053073   0.056845   0.100052   0.073354
   98  C  9 XX   -0.012702   0.011431   0.006251  -0.007563  -0.002699
   99  C  9 YY    0.020694  -0.015444  -0.006517   0.000366   0.003577
  100  C  9 ZZ   -0.007991   0.004014   0.000266   0.007196  -0.000878
  101  C  9 XY    0.000000   0.000000   0.000000   0.000000   0.000000
  102  C  9 XZ    0.000000   0.000000   0.000000   0.000000   0.000000
  103  C  9 YZ    0.009229  -0.011497   0.019620  -0.006209   0.010703
  104  C  9  S    0.016640   0.025430  -0.209699  -0.179750  -0.177603
  105  C  9  X    0.000000   0.000000   0.000000   0.000000   0.000000
  106  C  9  Y    0.010149  -0.014776   0.047775   0.061809   0.034611
  107  C  9  Z    0.010570   0.002855  -0.046569   0.000228  -0.019189
  108  C  9 XX    0.000267  -0.003932   0.004678   0.001091   0.001875
  109  C  9 YY    0.030554   0.000135  -0.061122   0.044535   0.013825
  110  C  9 ZZ   -0.030821   0.003797   0.056444  -0.045626  -0.015700
  111  C  9 XY    0.000000   0.000000   0.000000   0.000000   0.000000
  112  C  9 XZ    0.000000   0.000000   0.000000   0.000000   0.000000
  113  C  9 YZ   -0.059521   0.083306  -0.027688  -0.021074  -0.004485
  114  C 10  S   -0.015466  -0.013923   0.007237   0.007802  -0.001811
  115  C 10  S    0.159941   0.140757  -0.155332  -0.241354   0.135803
  116  C 10  S    0.045442   0.188962  -0.105370  -0.363112   0.164198
  117  C 10  X    0.000000   0.000000   0.000000   0.000000   0.000000
  118  C 10  Y   -0.062576  -0.088530  -0.156129  -0.023329  -0.120515
  119  C 10  Z    0.046839   0.043188  -0.026860  -0.011439  -0.134128
  120  C 10  X    0.000000   0.000000   0.000000   0.000000   0.000000
  121  C 10  Y    0.142735   0.171268  -0.008262  -0.127606   0.003928
  122  C 10  Z   -0.026691   0.053073   0.056845  -0.100052   0.073354
  123  C 10 XX   -0.012702  -0.011431   0.006251   0.007563  -0.002699
  124  C 10 YY    0.020694   0.015444  -0.006517  -0.000366   0.003577
  125  C 10 ZZ   -0.007991  -0.004014   0.000266  -0.007196  -0.000878
  126  C 10 XY    0.000000   0.000000   0.000000   0.000000   0.000000
  127  C 10 XZ    0.000000   0.000000   0.000000   0.000000   0.000000
  128  C 10 YZ   -0.009229  -0.011497  -0.019620  -0.006209  -0.010703
  129  C 10  S    0.016641  -0.025430  -0.209699   0.179750  -0.177603
  130  C 10  X    0.000000   0.000000   0.000000   0.000000   0.000000
  131  C 10  Y   -0.010149  -0.014776  -0.047775   0.061809  -0.034611
  132  C 10  Z    0.010570  -0.002855  -0.046569  -0.000228  -0.019189
  133  C 10 XX    0.000267   0.003932   0.004678  -0.001091   0.001875
  134  C 10 YY    0.030554  -0.000135  -0.061122  -0.044535   0.013825
  135  C 10 ZZ   -0.030821  -0.003797   0.056444   0.045626  -0.015700
  136  C 10 XY    0.000000   0.000000   0.000000   0.000000   0.000000
  137  C 10 XZ    0.000000   0.000000   0.000000   0.000000   0.000000
  138  C 10 YZ    0.059521   0.083306   0.027688  -0.021074   0.004485
  139  N 11  S   -0.012985   0.013326  -0.004526   0.001794   0.000193
  140  N 11  S    0.252161  -0.269078   0.137141  -0.114228  -0.042085
  141  N 11  S    0.268495  -0.289446   0.153450  -0.100487  -0.046281
  142  N 11  X    0.000000   0.000000   0.000000   0.000000   0.000000
  143  N 11  Y   -0.046379   0.044419   0.053166  -0.184522  -0.104520
  144  N 11  Z   -0.018425   0.019251   0.004993  -0.072963  -0.185109
  145  N 11  X    0.000000   0.000000   0.000000   0.000000   0.000000
  146  N 11  Y   -0.081967   0.081414  -0.000486  -0.057615  -0.031337
  147  N 11  Z   -0.018334   0.026474  -0.019538  -0.019571  -0.064719
  148  N 11 XX   -0.007725   0.008097  -0.002110  -0.000069  -0.000220
  149  N 11 YY    0.008172  -0.007910  -0.002218   0.007546   0.005596
  150  N 11 ZZ   -0.000447  -0.000187   0.004328  -0.007478  -0.005377
  151  N 11 XY    0.000000   0.000000   0.000000   0.000000   0.000000
  152  N 11 XZ    0.000000   0.000000   0.000000   0.000000   0.000000
  153  N 11 YZ    0.004188  -0.005019  -0.001306   0.009636   0.007392
  154  N 11  S   -0.025211   0.027026   0.031488   0.016721   0.029838
  155  N 11  X    0.000000   0.000000   0.000000   0.000000   0.000000
  156  N 11  Y    0.001285  -0.004108  -0.006266  -0.028737  -0.017348
  157  N 11  Z   -0.001669   0.001191   0.014792  -0.009993  -0.004211
  158  N 11 XX    0.014636  -0.015739   0.009922  -0.010857  -0.008139
  159  N 11 YY    0.006851  -0.004594  -0.010700  -0.004031  -0.021210
  160  N 11 ZZ   -0.021487   0.020333   0.000778   0.014888   0.029349
  161  N 11 XY    0.000000   0.000000   0.000000   0.000000   0.000000
  162  N 11 XZ    0.000000   0.000000   0.000000   0.000000   0.000000
  163  N 11 YZ    0.007741  -0.009644   0.017775  -0.016148   0.008957
  164  N 12  S   -0.012985  -0.013326  -0.004526  -0.001794   0.000193
  165  N 12  S    0.252161   0.269078   0.137141   0.114228  -0.042085
  166  N 12  S    0.268495   0.289446   0.153450   0.100487  -0.046280
  167  N 12  X    0.000000   0.000000   0.000000   0.000000   0.000000
  168  N 12  Y    0.046379   0.044419  -0.053166  -0.184522   0.104520
  169  N 12  Z   -0.018425  -0.019251   0.004993   0.072963  -0.185109
  170  N 12  X    0.000000   0.000000   0.000000   0.000000   0.000000
  171  N 12  Y    0.081967   0.081414   0.000486  -0.057615   0.031337
  172  N 12  Z   -0.018334  -0.026474  -0.019538   0.019571  -0.064719
  173  N 12 XX   -0.007725  -0.008097  -0.002110   0.000069  -0.000220
  174  N 12 YY    0.008172   0.007910  -0.002218  -0.007546   0.005596
  175  N 12 ZZ   -0.000447   0.000187   0.004328   0.007478  -0.005377
  176  N 12 XY    0.000000   0.000000   0.000000   0.000000   0.000000
  177  N 12 XZ    0.000000   0.000000   0.000000   0.000000   0.000000
  178  N 12 YZ   -0.004188  -0.005019   0.001306   0.009636  -0.007392
  179  N 12  S   -0.025211  -0.027026   0.031488  -0.016721   0.029838
  180  N 12  X    0.000000   0.000000   0.000000   0.000000   0.000000
  181  N 12  Y   -0.001285  -0.004108   0.006266  -0.028737   0.017348
  182  N 12  Z   -0.001669  -0.001191   0.014792   0.009993  -0.004211
  183  N 12 XX    0.014636   0.015739   0.009922   0.010857  -0.008139
  184  N 12 YY    0.006851   0.004594  -0.010700   0.004031  -0.021210
  185  N 12 ZZ   -0.021487  -0.020333   0.000778  -0.014888   0.029349
  186  N 12 XY    0.000000   0.000000   0.000000   0.000000   0.000000
  187  N 12 XZ    0.000000   0.000000   0.000000   0.000000   0.000000
  188  N 12 YZ   -0.007741  -0.009644  -0.017775  -0.016148  -0.008957

                     11         12         13         14         15

                   -0.9451    -0.9296    -0.8683    -0.8364    -0.7694

    1  H  1  S    0.000000  -0.075796  -0.249866   0.000000   0.000000
    2  H  1  S    0.000000  -0.026146  -0.229441   0.000000   0.000000
    3  H  1  X    0.000000   0.000000   0.000000   0.000000   0.000000
    4  H  1  Y    0.004878   0.000000   0.000000  -0.005907   0.004044
    5  H  1  Z    0.000000   0.006116   0.020092   0.000000   0.000000
    6  H  1  S    0.000000   0.044628   0.012794   0.000000   0.000000
    7  H  1  X    0.000000   0.000000   0.000000   0.000000   0.000000
    8  H  1  Y   -0.002654   0.000000   0.000000   0.041088  -0.025096
    9  H  1  Z    0.000000  -0.004102   0.038024   0.000000   0.000000
   10  H  2  S   -0.118179   0.093752   0.082765  -0.146756  -0.222640
   11  H  2  S   -0.169031   0.097072   0.036673  -0.125568  -0.147149
   12  H  2  X    0.000000   0.000000   0.000000   0.000000   0.000000
   13  H  2  Y   -0.001517  -0.004248   0.000127   0.005494  -0.005198
   14  H  2  Z   -0.008786   0.006797   0.007321  -0.012136  -0.014956
   15  H  2  S   -0.021713  -0.003713  -0.006827  -0.035668  -0.005031
   16  H  2  X    0.000000   0.000000   0.000000   0.000000   0.000000
   17  H  2  Y   -0.003144   0.014871  -0.005329  -0.018523   0.014087
   18  H  2  Z   -0.044630   0.023481   0.002665  -0.026680  -0.020834
   19  H  3  S    0.118179   0.093752   0.082765   0.146756   0.222640
   20  H  3  S    0.169031   0.097072   0.036673   0.125568   0.147149
   21  H  3  X    0.000000   0.000000   0.000000   0.000000   0.000000
   22  H  3  Y   -0.001517   0.004248  -0.000127   0.005494  -0.005198
   23  H  3  Z    0.008786   0.006797   0.007321   0.012136   0.014956
   24  H  3  S    0.021713  -0.003713  -0.006827   0.035668   0.005031
   25  H  3  X    0.000000   0.000000   0.000000   0.000000   0.000000
   26  H  3  Y   -0.003144  -0.014871   0.005329  -0.018523   0.014087
   27  H  3  Z    0.044630   0.023481   0.002665   0.026680   0.020834
   28  H  4  S    0.198349   0.014692   0.211364  -0.088002  -0.158320
   29  H  4  S    0.098508  -0.041717   0.111537  -0.062309  -0.144307
   30  H  4  X    0.000000   0.000000   0.000000   0.000000   0.000000
   31  H  4  Y   -0.004636   0.006269  -0.004489  -0.005517   0.004728
   32  H  4  Z   -0.017502  -0.003181  -0.018180   0.007429   0.011173
   33  H  4  S   -0.001625  -0.005659  -0.001645   0.013266   0.002996
   34  H  4  X    0.000000   0.000000   0.000000   0.000000   0.000000
   35  H  4  Y    0.005263  -0.014579  -0.005945   0.025426   0.008748
   36  H  4  Z   -0.025029   0.013895  -0.029892   0.012994   0.044755
   37  H  5  S   -0.198349   0.014692   0.211364   0.088002   0.158320
   38  H  5  S   -0.098508  -0.041717   0.111537   0.062309   0.144307
   39  H  5  X    0.000000   0.000000   0.000000   0.000000   0.000000
   40  H  5  Y   -0.004636  -0.006269   0.004489  -0.005517   0.004728
   41  H  5  Z    0.017502  -0.003181  -0.018180  -0.007429  -0.011173
   42  H  5  S    0.001625  -0.005659  -0.001645  -0.013266  -0.002996
   43  H  5  X    0.000000   0.000000   0.000000   0.000000   0.000000
   44  H  5  Y    0.005263   0.014579   0.005945   0.025426   0.008748
   45  H  5  Z    0.025029   0.013895  -0.029892  -0.012994  -0.044755
   46  H  6  S   -0.180776   0.220425  -0.170545  -0.115456   0.157528
   47  H  6  S   -0.086010   0.073981  -0.109025  -0.052758   0.136431
   48  H  6  X    0.000000   0.000000   0.000000   0.000000   0.000000
   49  H  6  Y    0.014928  -0.014821   0.013838   0.004435  -0.011253
   50  H  6  Z   -0.007404   0.014812  -0.004949  -0.009849   0.003481
   51  H  6  S    0.006263  -0.002977  -0.003013   0.007699   0.004196
   52  H  6  X    0.000000   0.000000   0.000000   0.000000   0.000000
   53  H  6  Y    0.007914  -0.019427   0.017029   0.021352  -0.034302
   54  H  6  Z   -0.024559   0.006259  -0.024890   0.003699   0.022568
   55  H  7  S    0.180776   0.220425  -0.170545   0.115456  -0.157528
   56  H  7  S    0.086010   0.073981  -0.109025   0.052758  -0.136431
   57  H  7  X    0.000000   0.000000   0.000000   0.000000   0.000000
   58  H  7  Y    0.014928   0.014821  -0.013838   0.004435  -0.011253
   59  H  7  Z    0.007404   0.014812  -0.004949   0.009849  -0.003481
   60  H  7  S   -0.006263  -0.002977  -0.003013  -0.007699  -0.004196
   61  H  7  X    0.000000   0.000000   0.000000   0.000000   0.000000
   62  H  7  Y    0.007914   0.019427  -0.017029   0.021352  -0.034302
   63  H  7  Z    0.024559   0.006259  -0.024890  -0.003699  -0.022568
   64  C  8  S    0.000000  -0.006503   0.006852   0.000000   0.000000
   65  C  8  S    0.000000   0.030942  -0.110916   0.000000   0.000000
   66  C  8  S    0.000000   0.047443   0.025329   0.000000   0.000000
   67  C  8  X    0.000000   0.000000   0.000000   0.000000   0.000000
[...]
          -----------------

         WAVEFUNCTION NORMALIZATION =       1.0000000000

                ONE ELECTRON ENERGY =    -625.8426774005
                TWO ELECTRON ENERGY =     233.6908851064
           NUCLEAR REPULSION ENERGY =     165.8640811568
                                      ------------------
                       TOTAL ENERGY =    -226.2877111374

 ELECTRON-ELECTRON POTENTIAL ENERGY =     233.6908851064
  NUCLEUS-ELECTRON POTENTIAL ENERGY =    -852.1327321716
   NUCLEUS-NUCLEUS POTENTIAL ENERGY =     165.8640811568
                                      ------------------
             TOTAL POTENTIAL ENERGY =    -452.5777659085
               TOTAL KINETIC ENERGY =     226.2900547711
                 VIRIAL RATIO (V/T) =       1.9999896432

          ---------------------------------------
          MULLIKEN AND LOWDIN POPULATION ANALYSES
          ---------------------------------------

     MULLIKEN ATOMIC POPULATION IN EACH MOLECULAR ORBITAL

                      1          2          3          4          5

                  2.000000   2.000000   2.000000   2.000000   2.000000

    1             0.000024  -0.000125   0.000129   0.000715   0.001282
    2             0.000238   0.000076  -0.000254   0.001518   0.000276
    3             0.000233   0.000080  -0.000252   0.001515   0.000276
    4             0.000142   0.000355  -0.000016  -0.000215   0.000010
    5             0.000134   0.000363  -0.000017  -0.000214   0.000010
    6             0.000359   0.000431   0.000071   0.000048   0.000023
    7             0.000346   0.000444   0.000072   0.000048   0.000023
    8             0.000259  -0.001038   0.017368   0.008509   1.983655
    9             0.003220   0.003649   0.989034   0.999998   0.007555
   10             0.003113   0.003756   0.996862   0.992170   0.007555
   11             1.012258   0.979712  -0.001492  -0.002054  -0.000333
   12             0.979673   1.012297  -0.001506  -0.002039  -0.000333

                      6          7          8          9         10

                  2.000000   2.000000   2.000000   2.000000   2.000000

    1             0.056626  -0.008556   0.159185  -0.006520   0.303989
    2             0.049669   0.025482   0.018495   0.141557   0.194987
    3             0.049669   0.025482   0.018495   0.141557   0.194987
    4             0.109012   0.121808   0.022623   0.072822   0.139816
    5             0.109012   0.121808   0.022623   0.072822   0.139816
    6             0.063663   0.094142   0.061972   0.086466  -0.007661
    7             0.063663   0.094142   0.061972   0.086466  -0.007661
    8            -0.135189  -0.208074   0.349073  -0.065743   0.169350
    9             0.190201   0.170757   0.497900   0.433997   0.182814
   10             0.190201   0.170757   0.497900   0.433997   0.182814
   11             0.626736   0.696126   0.144882   0.301289   0.253375
   12             0.626736   0.696126   0.144882   0.301289   0.253375

                     11         12         13         14         15

                  2.000000   2.000000   2.000000   2.000000   2.000000

    1            -0.000828   0.031721   0.386178  -0.008250  -0.004342
    2             0.120888   0.072477   0.038280   0.134553   0.228767
    3             0.120888   0.072477   0.038280   0.134553   0.228767
    4             0.173509  -0.011570   0.174905   0.035945   0.095892
    5             0.173509  -0.011570   0.174905   0.035945   0.095892
    6             0.138707   0.208042   0.115887   0.057270   0.088174
    7             0.138707   0.208042   0.115887   0.057270   0.088174
    8             0.206191   0.188785   0.271068   0.318370   0.263634
    9             0.056509   0.179662   0.039345   0.347703   0.329042
   10             0.056509   0.179662   0.039345   0.347703   0.329042
   11             0.407705   0.441135   0.302960   0.269469   0.128479
   12             0.407705   0.441136   0.302960   0.269469   0.128479

                     16         17         18         19         20

                  2.000000   2.000000   2.000000   1.491308   0.508692

    1             0.607820  -0.004411   0.000000   0.009015   0.000000
    2             0.285576  -0.002879  -0.004785   0.000929   0.005957
    3             0.285576  -0.002879  -0.004785   0.000929   0.005957
    4             0.041657   0.007243   0.010039   0.002388   0.003339
    5             0.041657   0.007243   0.010039   0.002388   0.003339
    6             0.004960   0.006265   0.010980   0.004516   0.002233
    7             0.004960   0.006265   0.010980   0.004516   0.002233
    8             0.366333   0.222506   0.040404   0.841330   0.005584
    9             0.136872   0.298227   0.137115   0.101696   0.194154
   10             0.136872   0.298227   0.137115   0.101696   0.194154
   11             0.043858   0.582097   0.826448   0.210952   0.045871
   12             0.043858   0.582097   0.826448   0.210952   0.045871
 WARNING! MCSCF POPULATIONS SHOWN ABOVE ARE FOR THE NATURAL ORBITALS.
 IGNORE THE ABOVE DATA FOR MCSCF FUNCTIONS WHICH ARE NOT OF -FORS- TYPE.
 THE FOLLOWING POPULATIONS ARE CORRECT FOR ANY MCSCF WAVEFUNCTION.

               ----- POPULATIONS IN EACH AO -----
                             MULLIKEN      LOWDIN
              1  H  1  S      0.76514     0.51520
              2  H  1  S      0.72817     0.15312
              3  H  1  X      0.00662     0.01504
              4  H  1  Y      0.00341     0.01120
              5  H  1  Z      0.02132     0.04128
              6  H  1  S      0.01693     0.01924
              7  H  1  X     -0.00202     0.05666
              8  H  1  Y     -0.03175     0.03605
              9  H  1  Z      0.01584     0.06707
             10  H  2  S      0.76457     0.52120
             11  H  2  S      0.51558     0.14562
             12  H  2  X      0.00466     0.01122
             13  H  2  Y      0.00280     0.00910
             14  H  2  Z      0.02272     0.04266
             15  H  2  S      0.02320     0.01837
             16  H  2  X     -0.00544     0.04631
             17  H  2  Y     -0.01919     0.03827
             18  H  2  Z      0.00290     0.06658
             19  H  3  S      0.76457     0.52120
             20  H  3  S      0.51558     0.14562
             21  H  3  X      0.00466     0.01122
             22  H  3  Y      0.00280     0.00910
             23  H  3  Z      0.02272     0.04266
             24  H  3  S      0.02320     0.01837
             25  H  3  X     -0.00544     0.04631
             26  H  3  Y     -0.01919     0.03827
             27  H  3  Z      0.00290     0.06658
             28  H  4  S      0.73867     0.47412
             29  H  4  S      0.23344     0.11360
             30  H  4  X      0.01367     0.03340
             31  H  4  Y      0.00544     0.02028
             32  H  4  Z      0.03684     0.06266
             33  H  4  S     -0.01102     0.01486
             34  H  4  X      0.00934     0.07351
             35  H  4  Y     -0.01902     0.04273
             36  H  4  Z     -0.00765     0.07509
             37  H  5  S      0.73867     0.47412
             38  H  5  S      0.23344     0.11360
             39  H  5  X      0.01367     0.03340
             40  H  5  Y      0.00544     0.02028
             41  H  5  Z      0.03684     0.06266
             42  H  5  S     -0.01102     0.01486
             43  H  5  X      0.00934     0.07351
             44  H  5  Y     -0.01902     0.04273
             45  H  5  Z     -0.00765     0.07509
             46  H  6  S      0.73821     0.47016
             47  H  6  S      0.18540     0.11411
             48  H  6  X      0.01415     0.03394
             49  H  6  Y      0.02678     0.04853
             50  H  6  Z      0.01566     0.03403
             51  H  6  S     -0.00655     0.01388
             52  H  6  X      0.00984     0.07412
             53  H  6  Y     -0.01896     0.05911
             54  H  6  Z     -0.02798     0.05421
             55  H  7  S      0.73821     0.47016
             56  H  7  S      0.18540     0.11411
             57  H  7  X      0.01415     0.03394
             58  H  7  Y      0.02678     0.04853
             59  H  7  Z      0.01566     0.03403
             60  H  7  S     -0.00655     0.01388
             61  H  7  X      0.00984     0.07412
             62  H  7  Y     -0.01896     0.05911
             63  H  7  Z     -0.02798     0.05421
             64  C  8  S      2.00824     1.80430
             65  C  8  S      0.65035     0.43489
             66  C  8  S      0.15478     0.17553
             67  C  8  X      0.59451     0.49448
             68  C  8  Y      0.73859     0.62370
             69  C  8  Z      0.73040     0.61531
             70  C  8  X      0.45956     0.26871
             71  C  8  Y     -0.17468     0.22125
             72  C  8  Z      0.07658     0.28405
             73  C  8 XX      0.02180     0.05441
             74  C  8 YY      0.01128     0.16121
             75  C  8 ZZ      0.01253     0.14695
             76  C  8 XY      0.00517     0.02355
             77  C  8 XZ      0.02583     0.00631
             78  C  8 YZ      0.00000     0.05489
             79  C  8  S     -0.42326     0.04350
             80  C  8  X      0.00744     0.02455
             81  C  8  Y      0.04628     0.03682
             82  C  8  Z      0.05151     0.03053
             83  C  8 XX     -0.09623     0.00675
             84  C  8 YY      0.01509     0.11422
             85  C  8 ZZ      0.03346     0.12355
             86  C  8 XY     -0.00284     0.09574
             87  C  8 XZ     -0.10402     0.01692
             88  C  8 YZ      0.00000     0.13465
             89  C  9  S      2.00794     1.79198
             90  C  9  S      0.67341     0.44638
             91  C  9  S      0.51931     0.16994
             92  C  9  X      0.45482     0.37371
             93  C  9  Y      0.74773     0.62702
             94  C  9  Z      0.75984     0.63173
             95  C  9  X      0.23669     0.22171
             96  C  9  Y     -0.14309     0.20361
             97  C  9  Z     -0.03043     0.26804
             98  C  9 XX      0.02802     0.05152
             99  C  9 YY      0.02080     0.18045
            100  C  9 ZZ      0.03772     0.15188
            101  C  9 XY      0.00635     0.06513
            102  C  9 XZ      0.03239     0.00975
            103  C  9 YZ      0.00000     0.06504
            104  C  9  S      0.01711     0.04215
            105  C  9  X      0.00104     0.02177
            106  C  9  Y      0.04522     0.03635
            107  C  9  Z      0.02514     0.02624
            108  C  9 XX     -0.08583     0.00616
            109  C  9 YY     -0.00156     0.15206
            110  C  9 ZZ      0.00711     0.11901
            111  C  9 XY     -0.01252     0.16523
            112  C  9 XZ     -0.04773     0.02545
            113  C  9 YZ      0.00000     0.14389
            114  C 10  S      2.00794     1.79198
            115  C 10  S      0.67341     0.44638
            116  C 10  S      0.51931     0.16994
            117  C 10  X      0.45482     0.37371
            118  C 10  Y      0.74773     0.62702
            119  C 10  Z      0.75984     0.63173
            120  C 10  X      0.23669     0.22171
            121  C 10  Y     -0.14309     0.20361
            122  C 10  Z     -0.03043     0.26804
            123  C 10 XX      0.02802     0.05152
            124  C 10 YY      0.02080     0.18045
            125  C 10 ZZ      0.03772     0.15188
            126  C 10 XY      0.00635     0.06513
            127  C 10 XZ      0.03239     0.00975
            128  C 10 YZ      0.00000     0.06504
            129  C 10  S      0.01711     0.04215
            130  C 10  X      0.00104     0.02177
            131  C 10  Y      0.04522     0.03635
            132  C 10  Z      0.02514     0.02624
            133  C 10 XX     -0.08583     0.00616
            134  C 10 YY     -0.00156     0.15206
            135  C 10 ZZ      0.00711     0.11901
            136  C 10 XY     -0.01252     0.16523
            137  C 10 XZ     -0.04773     0.02545
            138  C 10 YZ      0.00000     0.14389
            139  N 11  S      2.00564     1.84199
            140  N 11  S      0.71798     0.48632
            141  N 11  S      0.79200     0.24056
            142  N 11  X      0.87614     0.79455
            143  N 11  Y      0.78194     0.67686
            144  N 11  Z      0.78086     0.67431
            145  N 11  X      0.71735     0.44806
            146  N 11  Y      0.28723     0.36153
            147  N 11  Z      0.29769     0.38739
            148  N 11 XX      0.00899     0.08608
            149  N 11 YY      0.00545     0.15229
            150  N 11 ZZ      0.00429     0.14250
            151  N 11 XY      0.00083     0.00588
            152  N 11 XZ      0.01159     0.00115
            153  N 11 YZ      0.00000     0.02187
            154  N 11  S     -0.06775     0.04990
            155  N 11  X      0.04884     0.03864
            156  N 11  Y      0.01085     0.04499
            157  N 11  Z      0.00056     0.03892
            158  N 11 XX     -0.01402     0.01026
            159  N 11 YY      0.00134     0.09942
            160  N 11 ZZ      0.01552     0.07567
            161  N 11 XY      0.00241     0.04654
            162  N 11 XZ     -0.01625     0.00895
            163  N 11 YZ      0.00000     0.10171
            164  N 12  S      2.00564     1.84199
            165  N 12  S      0.71798     0.48632
            166  N 12  S      0.79200     0.24056
            167  N 12  X      0.87614     0.79455
            168  N 12  Y      0.78194     0.67686
            169  N 12  Z      0.78086     0.67431
            170  N 12  X      0.71735     0.44806
            171  N 12  Y      0.28723     0.36153
            172  N 12  Z      0.29769     0.38739
            173  N 12 XX      0.00899     0.08608
            174  N 12 YY      0.00545     0.15229
            175  N 12 ZZ      0.00429     0.14250
            176  N 12 XY      0.00083     0.00588
            177  N 12 XZ      0.01159     0.00115
            178  N 12 YZ      0.00000     0.02187
            179  N 12  S     -0.06775     0.04990
            180  N 12  X      0.04884     0.03864
            181  N 12  Y      0.01085     0.04499
            182  N 12  Z      0.00056     0.03892
            183  N 12 XX     -0.01402     0.01026
            184  N 12 YY      0.00134     0.09942
            185  N 12 ZZ      0.01552     0.07567
            186  N 12 XY      0.00241     0.04654
            187  N 12 XZ     -0.01625     0.00895
            188  N 12 YZ      0.00000     0.10171

          ----- MULLIKEN ATOMIC OVERLAP POPULATIONS -----
          (OFF-DIAGONAL ELEMENTS NEED TO BE MULTIPLIED BY 2)

             1           2           3           4           5

    1    1.6441529
    2    0.0504289   1.2519004
    3    0.0504288  -0.0298817   1.2519004
    4    0.0151014   0.0148327  -0.0000671   0.8022567
    5    0.0151013  -0.0000671   0.0148327  -0.0000763   0.8022567
    6   -0.0034280  -0.0211419  -0.0018218  -0.1712031   0.0000880
    7   -0.0034280  -0.0018218  -0.0211419   0.0000880  -0.1712031
    8   -0.0177102  -0.0430530  -0.0430531   0.0666807   0.0666808
    9   -0.0976212   0.1837799  -0.0571746  -0.1577588  -0.0041883
   10   -0.0976218  -0.0571750   0.1837797  -0.0041882  -0.1577589
   11   -0.0158759  -0.0464390   0.0104438   0.4326776   0.0013624
   12   -0.0158760   0.0104438  -0.0464389   0.0013624   0.4326776

             6           7           8           9          10

    6    0.7917230
    7    0.0000423   0.7917230
    8    0.0012591   0.0012590   5.6389703
    9   -0.1202568  -0.0119597  -0.2829896   5.5943320
   10   -0.0119597  -0.1202566  -0.2829896   0.0280000   5.5943328
   11    0.4730562   0.0001917  -0.1313389   0.2172473   0.0080399
   12    0.0001917   0.4730561  -0.1313388   0.0080398   0.2172474

            11          12

   11    6.3331017
   12   -0.0129919   6.3331017

          TOTAL MULLIKEN AND LOWDIN ATOMIC POPULATIONS
       ATOM         MULL.POP.    CHARGE          LOW.POP.     CHARGE
    1 H             1.523652   -0.523652         0.914851    0.085149
    2 H             1.311806   -0.311806         0.899326    0.100674
    3 H             1.311806   -0.311806         0.899326    0.100674
    4 H             0.999706    0.000294         0.910254    0.089746
    5 H             0.999706    0.000294         0.910254    0.089746
    6 H             0.936549    0.063451         0.902085    0.097915
    7 H             0.936549    0.063451         0.902085    0.097915
    8 C             4.842376    1.157624         5.996743    0.003257
    9 C             5.299450    0.700550         5.996208    0.003792
   10 C             5.299450    0.700550         5.996208    0.003792
   11 N             7.269475   -0.269475         6.836329    0.163671
   12 N             7.269475   -0.269475         6.836329    0.163671

          MULLIKEN SPHERICAL HARMONIC POPULATIONS
       ATOM           S       P       D      F      G      H      I    TOTAL
    1 H             1.51    0.01    0.00   0.00   0.00   0.00   0.00    1.52
    2 H             1.30    0.01    0.00   0.00   0.00   0.00   0.00    1.31
    3 H             1.30    0.01    0.00   0.00   0.00   0.00   0.00    1.31
    4 H             0.96    0.04    0.00   0.00   0.00   0.00   0.00    1.00
    5 H             0.96    0.04    0.00   0.00   0.00   0.00   0.00    1.00
    6 H             0.92    0.02    0.00   0.00   0.00   0.00   0.00    0.94
    7 H             0.92    0.02    0.00   0.00   0.00   0.00   0.00    0.94
    8 C             2.39    2.53   -0.08   0.00   0.00   0.00   0.00    4.84
    9 C             3.22    2.10   -0.02   0.00   0.00   0.00   0.00    5.30
   10 C             3.22    2.10   -0.02   0.00   0.00   0.00   0.00    5.30
   11 N             3.45    3.80    0.02   0.00   0.00   0.00   0.00    7.27
   12 N             3.45    3.80    0.02   0.00   0.00   0.00   0.00    7.27

          ---------------------
          ELECTROSTATIC MOMENTS
          ---------------------

 POINT   1           X           Y           Z (BOHR)    CHARGE
                 0.000000    0.000000   -0.000508        1.00 (A.U.)
         DX          DY          DZ         /D/  (DEBYE)
     0.000000    0.000000   -0.015897    0.015897
 ...... END OF PROPERTY EVALUATION ......
 STEP CPU TIME =     0.04 TOTAL CPU TIME =       61.7 (    1.0 MIN)
 TOTAL WALL CLOCK TIME=       66.0 SECONDS, CPU UTILIZATION IS  93.50%
                955807  WORDS OF DYNAMIC MEMORY USED
 EXECUTION OF GAMESS TERMINATED NORMALLY Tue Sep 19 11:30:09 2017
 DDI: 1128 bytes (0.0 MB / 0 MWords) used by master data server.

 ----------------------------------------
 CPU timing information for all processes
 ========================================
 0: 49.935120 + 11.788736 = 61.723856
 ----------------------------------------
 ddikick.x: exited gracefully.
----- accounting info -----
Tue Sep 19 11:30:12 CEST 2017
Files used on the master node lpqlx139 were:
-rw-r--r-- 1 scemama scemama    605912 Sep 19 11:30 /tmp/gamess/C3.dat
-rw-r--r-- 1 scemama scemama    544917 Sep 19 11:29 /tmp/gamess/C3.F05
-rw-r--r-- 1 scemama scemama 880278240 Sep 19 11:29 /tmp/gamess/C3.F08
-rw-r--r-- 1 scemama scemama    322152 Sep 19 11:30 /tmp/gamess/C3.F09
-rw-r--r-- 1 scemama scemama  17537920 Sep 19 11:30 /tmp/gamess/C3.F10
-rw-r--r-- 1 scemama scemama    268000 Sep 19 11:29 /tmp/gamess/C3.F11
-rw-r--r-- 1 scemama scemama       248 Sep 19 11:30 /tmp/gamess/C3.F12
-rw-r--r-- 1 scemama scemama    312136 Sep 19 11:30 /tmp/gamess/C3.F13
-rw-r--r-- 1 scemama scemama   4800008 Sep 19 11:30 /tmp/gamess/C3.F14
-rw-r--r-- 1 scemama scemama    181704 Sep 19 11:30 /tmp/gamess/C3.F15
-rw-r--r-- 1 scemama scemama    181704 Sep 19 11:30 /tmp/gamess/C3.F16
-rw-r--r-- 1 scemama scemama    613824 Sep 19 11:30 /tmp/gamess/C3.F23
0.084u 0.004s 1:10.67 0.1%	0+0k 104+1072io 4pf+0w
