----- GAMESS execution script -----
This job is running on host lpqlx139
under operating system Linux at Tue Sep 19 11:50:43 CEST 2017
Available scratch disk space (Kbyte units) at beginning of the job is
Filesystem     1K-blocks  Used Available Use% Mounted on
tmpfs            6592140   124   6592016   1% /run/shm

 Distributed Data Interface kickoff program.
 Initiating 1 compute processes on 1 nodes to run the following command:
 /usr/local/gamess/gamess.01.x C5 

          ******************************************************
          *         GAMESS VERSION = 22 FEB 2006 (R5)          *
          *             FROM IOWA STATE UNIVERSITY             *
          * M.W.SCHMIDT, K.K.BALDRIDGE, J.A.BOATZ, S.T.ELBERT, *
          *   M.S.GORDON, J.H.JENSEN, S.KOSEKI, N.MATSUNAGA,   *
          *          K.A.NGUYEN, S.J.SU, T.L.WINDUS,           *
          *       TOGETHER WITH M.DUPUIS, J.A.MONTGOMERY       *
          *         J.COMPUT.CHEM.  14, 1347-1363(1993)        *
          ***************** AMD 64 BIT VERSION *****************

     SINCE 1993, STUDENTS AND POSTDOCS WORKING AT IOWA STATE UNIVERSITY
     AND ALSO IN THEIR VARIOUS JOBS AFTER LEAVING ISU HAVE MADE IMPORTANT
     CONTRIBUTIONS TO THE CODE:
     IVANA ADAMOVIC, CHRISTINE AIKENS, YURI ALEXEEV, POOJA ARORA, ROB BELL,
     PRADIPTA BANDYOPADHYAY, BRETT BODE, GALINA CHABAN, WEI CHEN,
     CHEOL HO CHOI, PAUL DAY, TIM DUDLEY, DMITRI FEDOROV, GRAHAM FLETCHER,
     MARK FREITAG, KURT GLAESEMANN, GRANT MERRILL, TAKESHI NAGATA,
     HEATHER NETZLOFF, BOSILJKA NJEGIC, RYAN OLSON, MIKE PAK, JIM SHOEMAKER,
     LYUDMILA SLIPCHENKO, JIE SONG, TETSUYA TAKETSUGU, SIMON WEBB.

     ADDITIONAL CODE HAS BEEN PROVIDED BY COLLABORATORS IN OTHER GROUPS:
     IOWA STATE UNIVERSITY: JOE IVANIC, KLAUS RUEDENBERG
     UNIVERSITY OF TOKYO: KIMIHIKO HIRAO, HARUYUKI NAKANO, TAKAHITO
          NAKAJIMA, TAKAO TSUNEDA, MUNEAKI KAMIYA, SUSUMU YANAGISAWA,
          KIYOSHI YAGI
     UNIVERSITY OF SOUTHERN DENMARK: FRANK JENSEN
     UNIVERSITY OF IOWA: VISVALDAS KAIRYS, HUI LI
     NATIONAL INST. OF STANDARDS AND TECHNOLOGY: WALT STEVENS, DAVID GARMER
     UNIVERSITY OF PISA: BENEDETTA MENNUCCI, JACOPO TOMASI
     UNIVERSITY OF MEMPHIS: HENRY KURTZ, PRAKASHAN KORAMBATH
     UNIVERSITY OF ALBERTA: MARIUSZ KLOBUKOWSKI
     UNIVERSITY OF NEW ENGLAND: MARK SPACKMAN
     MIE UNIVERSITY: HIROAKI UMEDA
     MICHIGAN STATE UNIVERSITY:
          KAROL KOWALSKI, MARTA WLOCH, PIOTR PIECUCH
     UNIVERSITY OF SILESIA: MONIKA MUSIAL, STANISLAW KUCHARSKI
     FACULTES UNIVERSITAIRES NOTRE-DAME DE LA PAIX:
          OLIVIER QUINET, BENOIT CHAMPAGNE
     UNIVERSITY OF CALIFORNIA - SANTA BARBARA: BERNARD KIRTMAN
     INSTITUTE FOR MOLECULAR SCIENCE: KAZUYA ISHIMURA AND SHIGERU NAGASE
     UNIVERSITY OF NOTRE DAME: DAN CHIPMAN
     KYUSHU UNIVERSITY:
          FENG LONG GU, JACEK KORCHOWIEC, MARCIN MAKOWSKI, AND YURIKO AOKI
     PENNSYLVANIA STATE UNIVERSITY:
          TZVETELIN IORDANOV, CHET SWALINA, SHARON HAMMES-SCHIFFER

 EXECUTION OF GAMESS BEGUN Tue Sep 19 11:50:44 2017

            ECHO OF THE FIRST FEW INPUT CARDS -
 INPUT CARD> $CONTRL                                                                        
 INPUT CARD>   EXETYP=RUN COORD=UNIQUE  UNITS=ANGS                                          
 INPUT CARD>   RUNTYP=ENERGY SCFTYP=MCSCF CITYP=NONE                                        
 INPUT CARD>   MAXIT=100                                                                    
 INPUT CARD>   ISPHER=1                                                                     
 INPUT CARD>   MULT=1                                                                       
 INPUT CARD>   ICHARG=1                                                                     
 INPUT CARD>   MPLEVL=0                                                                     
 INPUT CARD> $END                                                                           
 INPUT CARD>                                                                                
 INPUT CARD> $GUESS                                                                         
 INPUT CARD>  GUESS=MOREAD                                                                  
 INPUT CARD>  NORB=242                                                                      
 INPUT CARD> $END                                                                           
 INPUT CARD>                                                                                
 INPUT CARD> $SCF                                                                           
 INPUT CARD>  DIRSCF=.T.                                                                    
 INPUT CARD> $END                                                                           
 INPUT CARD>                                                                                
 INPUT CARD> $MCSCF                                                                         
 INPUT CARD>   FOCAS=.F.    SOSCF=.T.   FULLNR=.F.                                          
 INPUT CARD>   CISTEP=GUGA EKT=.F. QUAD=.F. JACOBI=.f.                                      
 INPUT CARD>   MAXIT=1000                                                                   
 INPUT CARD> $END                                                                           
 INPUT CARD>                                                                                
 INPUT CARD> $GUGDIA                                                                        
 INPUT CARD>  NSTATE=2                                                                      
 INPUT CARD> $END                                                                           
 INPUT CARD>                                                                                
 INPUT CARD> $GUGDM2                                                                        
 INPUT CARD>  WSTATE(1)=0.5,0.5                                                             
 INPUT CARD> $END                                                                           
 INPUT CARD>                                                                                
 INPUT CARD>                                                                                
 INPUT CARD> $DRT                                                                           
 INPUT CARD>  NMCC=25                                                                       
 INPUT CARD>  NDOC=1                                                                        
 INPUT CARD>  NALP=0                                                                        
 INPUT CARD>  NVAL=1                                                                        
 INPUT CARD>  NEXT=0                                                                        
 INPUT CARD>  ISTSYM=1                                                                      
 INPUT CARD>  FORS=.TRUE.                                                                   
 INPUT CARD>  GROUP=C1                                                                      
 INPUT CARD>  MXNINT= 600000                                                                
 INPUT CARD>  NPRT=2                                                                        
 INPUT CARD> $END                                                                           
 INPUT CARD>                                                                                
 INPUT CARD> $GUGDM                                                                         
 INPUT CARD>  NFLGDM(1)=1,1                                                                 
 INPUT CARD>  WSTATE(1)=0.5,0.5                                                             

 ..... DONE SETTING UP THE RUN .....
    1000000 WORDS OF MEMORY AVAILABLE

     BASIS OPTIONS
     -------------
     GBASIS=ACCD         IGAUSS=       0      POLAR=NONE    
     NDFUNC=       0     NFFUNC=       0     DIFFSP=       F
     NPFUNC=       0      DIFFS=       F


     RUN TITLE
     ---------
 C5                                                                              

 THE POINT GROUP OF THE MOLECULE IS C1      
 THE ORDER OF THE PRINCIPAL AXIS IS     0

 ATOM      ATOMIC                      COORDINATES (BOHR)
           CHARGE         X                   Y                   Z
 H           1.0     0.0000000000        0.0000000000        2.5453248452
 H           1.0     0.0000000000        2.4339935283       -2.7532873004
 H           1.0     0.0000000000       -2.4339935283       -2.7532873004
 H           1.0     0.0000000000        4.3990723398        2.7492791916
 H           1.0     0.0000000000       -4.3990723398        2.7492791916
 H           1.0     0.0000000000        7.1636602017       -2.0941376478
 H           1.0     0.0000000000       -7.1636602017       -2.0941376478
 H           1.0     0.0000000000        8.3522392664        0.9246580436
 H           1.0     0.0000000000       -8.3522392664        0.9246580436
 C           6.0     0.0000000000        0.0000000000        0.4888777822
 C           6.0     0.0000000000        2.3303099326       -0.7064740605
 C           6.0     0.0000000000       -2.3303099326       -0.7064740605
 C           6.0     0.0000000000        4.5236241797        0.7019330490
 C           6.0     0.0000000000       -4.5236241797        0.7019330490
 N           7.0     0.0000000000        6.8370966537       -0.2197940296
 N           7.0     0.0000000000       -6.8370966537       -0.2197940296

          INTERNUCLEAR DISTANCES (ANGS.)
          ------------------------------

                    H              H              H              H         

  1  H               0.0000000      3.0855896      3.0855896      2.3303896 *  
  2  H               3.0855896      0.0000000      2.5760280 *    3.0919430    
  3  H               3.0855896      2.5760280 *    0.0000000      4.6425775    
  4  H               2.3303896 *    3.0919430      4.6425775      0.0000000    
  5  H               2.3303896 *    4.6425775      3.0919430      4.6557780    
  6  H               4.5164167      2.5270208 *    5.0908236      2.9511600 *  
  7  H               4.5164167      5.0908236      2.5270208 *    6.6338541    
  8  H               4.5022524      3.6873029      6.0305337      2.3040046 *  
  9  H               4.5022524      6.0305337      3.6873029      6.8164354    
 10  C               1.0882250 *    2.1453526 *    2.1453526 *    2.6172217 *  
 11  C               2.1170093 *    1.0845158 *    2.7439783 *    2.1313436 *  
 12  C               2.1170093 *    2.7439783 *    1.0845158 *    4.0031416    
 13  C               2.5849249 *    2.1367954 *    4.1108249      1.0854120 *  
 14  C               2.5849249 *    4.1108249      2.1367954 *    4.8443898    
 15  N               3.9027234      2.6881947 *    5.0859330      2.0329884 *  
 16  N               3.9027234      5.0859330      2.6881947 *    6.1500070    

                    H              H              H              H         

  1  H               2.3303896 *    4.5164167      4.5164167      4.5022524    
  2  H               4.6425775      2.5270208 *    5.0908236      3.6873029    
  3  H               3.0919430      5.0908236      2.5270208 *    6.0305337    
  4  H               4.6557780      2.9511600 *    6.6338541      2.3040046 *  
  5  H               0.0000000      6.6338541      2.9511600 *    6.8164354    
  6  H               6.6338541      0.0000000      7.5816920      1.7168395 *  
  7  H               2.9511600 *    7.5816920      0.0000000      8.3646213    
  8  H               6.8164354      1.7168395 *    8.3646213      0.0000000    
  9  H               2.3040046 *    8.3646213      1.7168395 *    8.8396300    
 10  C               2.6172217 *    4.0297463      4.0297463      4.4258268    
 11  C               4.0031416      2.6610242 *    5.0773745      3.3014989    
 12  C               2.1313436 *    5.0773745      2.6610242 *    5.7184807    
 13  C               4.8443898      2.0349464 *    6.3591745      2.0294413 *  
 14  C               1.0854120 *    6.3591745      2.0349464 *    6.8146333    
 15  N               6.1500070      1.0068016 *    7.4749795      1.0047998 *  
 16  N               2.0329884 *    7.4749795      1.0068016 *    8.0606341    

                    H              C              C              C         

  1  H               4.5022524      1.0882250 *    2.1170093 *    2.1170093 *  
  2  H               6.0305337      2.1453526 *    1.0845158 *    2.7439783 *  
  3  H               3.6873029      2.1453526 *    2.7439783 *    1.0845158 *  
  4  H               6.8164354      2.6172217 *    2.1313436 *    4.0031416    
  5  H               2.3040046 *    2.6172217 *    4.0031416      2.1313436 *  
  6  H               8.3646213      4.0297463      2.6610242 *    5.0773745    
  7  H               1.7168395 *    4.0297463      5.0773745      2.6610242 *  
  8  H               8.8396300      4.4258268      3.3014989      5.7184807    
  9  H               0.0000000      4.4258268      5.7184807      3.3014989    
 10  C               4.4258268      0.0000000      1.3859202 *    1.3859202 *  
 11  C               5.7184807      1.3859202 *    0.0000000      2.4662940 *  
 12  C               3.3014989      1.3859202 *    2.4662940 *    0.0000000    
 13  C               6.8146333      2.3964526 *    1.3793407 *    3.7027294    
 14  C               2.0294413 *    2.3964526 *    3.7027294      1.3793407 *  
 15  N               8.0606341      3.6374193      2.3987543 *    4.8580143    
 16  N               1.0047998 *    3.6374193      4.8580143      2.3987543 *  

                    C              C              N              N         

  1  H               2.5849249 *    2.5849249 *    3.9027234      3.9027234    
  2  H               2.1367954 *    4.1108249      2.6881947 *    5.0859330    
  3  H               4.1108249      2.1367954 *    5.0859330      2.6881947 *  
  4  H               1.0854120 *    4.8443898      2.0329884 *    6.1500070    
  5  H               4.8443898      1.0854120 *    6.1500070      2.0329884 *  
  6  H               2.0349464 *    6.3591745      1.0068016 *    7.4749795    
  7  H               6.3591745      2.0349464 *    7.4749795      1.0068016 *  
  8  H               2.0294413 *    6.8146333      1.0047998 *    8.0606341    
  9  H               6.8146333      2.0294413 *    8.0606341      1.0047998 *  
 10  C               2.3964526 *    2.3964526 *    3.6374193      3.6374193    
 11  C               1.3793407 *    3.7027294      2.3987543 *    4.8580143    
 12  C               3.7027294      1.3793407 *    4.8580143      2.3987543 *  
 13  C               0.0000000      4.7875980      1.3178251 *    6.0315891    
 14  C               4.7875980      0.0000000      6.0315891      1.3178251 *  
 15  N               1.3178251 *    6.0315891      0.0000000      7.2360720    
 16  N               6.0315891      1.3178251 *    7.2360720      0.0000000    

  * ... LESS THAN  3.000


     ATOMIC BASIS SET
     ----------------
 THE CONTRACTED PRIMITIVE FUNCTIONS HAVE BEEN UNNORMALIZED
 THE CONTRACTED BASIS FUNCTIONS ARE NOW NORMALIZED TO UNITY

  SHELL TYPE  PRIMITIVE        EXPONENT          CONTRACTION COEFFICIENT(S)

 H         

      1   S       1            13.0100000    0.033498726390
      1   S       2             1.9620000    0.234800801174
      1   S       3             0.4446000    0.813682957883

      2   S       4             0.1220000    1.000000000000

      3   P       5             0.7270000    1.000000000000

      4   S       6             0.0297400    1.000000000000

      5   P       7             0.1410000    1.000000000000

 H         

      6   S       8            13.0100000    0.033498726390
      6   S       9             1.9620000    0.234800801174
      6   S      10             0.4446000    0.813682957883

      7   S      11             0.1220000    1.000000000000

      8   P      12             0.7270000    1.000000000000

      9   S      13             0.0297400    1.000000000000

     10   P      14             0.1410000    1.000000000000

 H         

     11   S      15            13.0100000    0.033498726390
     11   S      16             1.9620000    0.234800801174
     11   S      17             0.4446000    0.813682957883

     12   S      18             0.1220000    1.000000000000

     13   P      19             0.7270000    1.000000000000

     14   S      20             0.0297400    1.000000000000

     15   P      21             0.1410000    1.000000000000

 H         

     16   S      22            13.0100000    0.033498726390
     16   S      23             1.9620000    0.234800801174
     16   S      24             0.4446000    0.813682957883

     17   S      25             0.1220000    1.000000000000

     18   P      26             0.7270000    1.000000000000

     19   S      27             0.0297400    1.000000000000

     20   P      28             0.1410000    1.000000000000

 H         

     21   S      29            13.0100000    0.033498726390
     21   S      30             1.9620000    0.234800801174
     21   S      31             0.4446000    0.813682957883

     22   S      32             0.1220000    1.000000000000

     23   P      33             0.7270000    1.000000000000

     24   S      34             0.0297400    1.000000000000

     25   P      35             0.1410000    1.000000000000

 H         

     26   S      36            13.0100000    0.033498726390
     26   S      37             1.9620000    0.234800801174
     26   S      38             0.4446000    0.813682957883

     27   S      39             0.1220000    1.000000000000

     28   P      40             0.7270000    1.000000000000

     29   S      41             0.0297400    1.000000000000

     30   P      42             0.1410000    1.000000000000

 H         

     31   S      43            13.0100000    0.033498726390
     31   S      44             1.9620000    0.234800801174
     31   S      45             0.4446000    0.813682957883

     32   S      46             0.1220000    1.000000000000

     33   P      47             0.7270000    1.000000000000

     34   S      48             0.0297400    1.000000000000

     35   P      49             0.1410000    1.000000000000

 H         

     36   S      50            13.0100000    0.033498726390
     36   S      51             1.9620000    0.234800801174
     36   S      52             0.4446000    0.813682957883

     37   S      53             0.1220000    1.000000000000

     38   P      54             0.7270000    1.000000000000

     39   S      55             0.0297400    1.000000000000

     40   P      56             0.1410000    1.000000000000

 H         

     41   S      57            13.0100000    0.033498726390
     41   S      58             1.9620000    0.234800801174
     41   S      59             0.4446000    0.813682957883

     42   S      60             0.1220000    1.000000000000

     43   P      61             0.7270000    1.000000000000

     44   S      62             0.0297400    1.000000000000

     45   P      63             0.1410000    1.000000000000

 C         

     46   S      64          6665.0000000    0.000691583963
     46   S      65          1000.0000000    0.005325796153
     46   S      66           228.0000000    0.027060721042
     46   S      67            64.7100000    0.101656846141
     46   S      68            21.0600000    0.274574823617
     46   S      69             7.4950000    0.448294318924
     46   S      70             2.7970000    0.284902610715
     46   S      71             0.5215000    0.015194859206

     47   S      72          6665.0000000   -0.000293269653
     47   S      73          1000.0000000   -0.002318035474
     47   S      74           228.0000000   -0.011499786039
     47   S      75            64.7100000   -0.046826727010
     47   S      76            21.0600000   -0.128466168750
     47   S      77             7.4950000   -0.301266272463
     47   S      78             2.7970000   -0.255630702330
     47   S      79             0.5215000    1.093793361012

     48   S      80             0.1596000    1.000000000000

     49   P      81             9.4390000    0.056979251590
     49   P      82             2.0020000    0.313207211501
     49   P      83             0.5456000    0.760376741738

     50   P      84             0.1517000    1.000000000000

     51   D      85             0.5500000    1.000000000000

     52   S      86             0.0469000    1.000000000000

     53   P      87             0.0404100    1.000000000000

     54   D      88             0.1510000    1.000000000000

 C         

     55   S      89          6665.0000000    0.000691583963
     55   S      90          1000.0000000    0.005325796153
     55   S      91           228.0000000    0.027060721042
     55   S      92            64.7100000    0.101656846141
     55   S      93            21.0600000    0.274574823617
     55   S      94             7.4950000    0.448294318924
     55   S      95             2.7970000    0.284902610715
     55   S      96             0.5215000    0.015194859206

     56   S      97          6665.0000000   -0.000293269653
     56   S      98          1000.0000000   -0.002318035474
     56   S      99           228.0000000   -0.011499786039
     56   S     100            64.7100000   -0.046826727010
     56   S     101            21.0600000   -0.128466168750
     56   S     102             7.4950000   -0.301266272463
     56   S     103             2.7970000   -0.255630702330
     56   S     104             0.5215000    1.093793361012

     57   S     105             0.1596000    1.000000000000

     58   P     106             9.4390000    0.056979251590
     58   P     107             2.0020000    0.313207211501
     58   P     108             0.5456000    0.760376741738

     59   P     109             0.1517000    1.000000000000

     60   D     110             0.5500000    1.000000000000

     61   S     111             0.0469000    1.000000000000

     62   P     112             0.0404100    1.000000000000

     63   D     113             0.1510000    1.000000000000

 C         

     64   S     114          6665.0000000    0.000691583963
     64   S     115          1000.0000000    0.005325796153
     64   S     116           228.0000000    0.027060721042
     64   S     117            64.7100000    0.101656846141
     64   S     118            21.0600000    0.274574823617
     64   S     119             7.4950000    0.448294318924
     64   S     120             2.7970000    0.284902610715
     64   S     121             0.5215000    0.015194859206

     65   S     122          6665.0000000   -0.000293269653
     65   S     123          1000.0000000   -0.002318035474
     65   S     124           228.0000000   -0.011499786039
     65   S     125            64.7100000   -0.046826727010
     65   S     126            21.0600000   -0.128466168750
     65   S     127             7.4950000   -0.301266272463
     65   S     128             2.7970000   -0.255630702330
     65   S     129             0.5215000    1.093793361012

     66   S     130             0.1596000    1.000000000000

     67   P     131             9.4390000    0.056979251590
     67   P     132             2.0020000    0.313207211501
     67   P     133             0.5456000    0.760376741738

     68   P     134             0.1517000    1.000000000000

     69   D     135             0.5500000    1.000000000000

     70   S     136             0.0469000    1.000000000000

     71   P     137             0.0404100    1.000000000000

     72   D     138             0.1510000    1.000000000000

 C         

     73   S     139          6665.0000000    0.000691583963
     73   S     140          1000.0000000    0.005325796153
     73   S     141           228.0000000    0.027060721042
     73   S     142            64.7100000    0.101656846141
     73   S     143            21.0600000    0.274574823617
     73   S     144             7.4950000    0.448294318924
     73   S     145             2.7970000    0.284902610715
     73   S     146             0.5215000    0.015194859206

     74   S     147          6665.0000000   -0.000293269653
     74   S     148          1000.0000000   -0.002318035474
     74   S     149           228.0000000   -0.011499786039
     74   S     150            64.7100000   -0.046826727010
     74   S     151            21.0600000   -0.128466168750
     74   S     152             7.4950000   -0.301266272463
     74   S     153             2.7970000   -0.255630702330
     74   S     154             0.5215000    1.093793361012

     75   S     155             0.1596000    1.000000000000

     76   P     156             9.4390000    0.056979251590
     76   P     157             2.0020000    0.313207211501
     76   P     158             0.5456000    0.760376741738

     77   P     159             0.1517000    1.000000000000

     78   D     160             0.5500000    1.000000000000

     79   S     161             0.0469000    1.000000000000

     80   P     162             0.0404100    1.000000000000

     81   D     163             0.1510000    1.000000000000

 C         

     82   S     164          6665.0000000    0.000691583963
     82   S     165          1000.0000000    0.005325796153
     82   S     166           228.0000000    0.027060721042
     82   S     167            64.7100000    0.101656846141
     82   S     168            21.0600000    0.274574823617
     82   S     169             7.4950000    0.448294318924
     82   S     170             2.7970000    0.284902610715
     82   S     171             0.5215000    0.015194859206

     83   S     172          6665.0000000   -0.000293269653
     83   S     173          1000.0000000   -0.002318035474
     83   S     174           228.0000000   -0.011499786039
     83   S     175            64.7100000   -0.046826727010
     83   S     176            21.0600000   -0.128466168750
     83   S     177             7.4950000   -0.301266272463
     83   S     178             2.7970000   -0.255630702330
     83   S     179             0.5215000    1.093793361012

     84   S     180             0.1596000    1.000000000000

     85   P     181             9.4390000    0.056979251590
     85   P     182             2.0020000    0.313207211501
     85   P     183             0.5456000    0.760376741738

     86   P     184             0.1517000    1.000000000000

     87   D     185             0.5500000    1.000000000000

     88   S     186             0.0469000    1.000000000000

     89   P     187             0.0404100    1.000000000000

     90   D     188             0.1510000    1.000000000000

 N         

     91   S     189          9046.0000000    0.000699617413
     91   S     190          1357.0000000    0.005386054630
     91   S     191           309.3000000    0.027391021189
     91   S     192            87.7300000    0.103150591982
     91   S     193            28.5600000    0.278570663317
     91   S     194            10.2100000    0.448294849454
     91   S     195             3.8380000    0.278085928395
     91   S     196             0.7466000    0.015431561233

     92   S     197          9046.0000000   -0.000304990096
     92   S     198          1357.0000000   -0.002408026379
     92   S     199           309.3000000   -0.011944448725
     92   S     200            87.7300000   -0.048925992909
     92   S     201            28.5600000   -0.134472724725
     92   S     202            10.2100000   -0.315112577700
     92   S     203             3.8380000   -0.242857832550
     92   S     204             0.7466000    1.094382206854

     93   S     205             0.2248000    1.000000000000

     94   P     206            13.5500000    0.058905676772
     94   P     207             2.9170000    0.320461106714
     94   P     208             0.7973000    0.753042061792

     95   P     209             0.2185000    1.000000000000

     96   D     210             0.8170000    1.000000000000

     97   S     211             0.0612400    1.000000000000

     98   P     212             0.0561100    1.000000000000

     99   D     213             0.2300000    1.000000000000

 N         

    100   S     214          9046.0000000    0.000699617413
    100   S     215          1357.0000000    0.005386054630
    100   S     216           309.3000000    0.027391021189
    100   S     217            87.7300000    0.103150591982
    100   S     218            28.5600000    0.278570663317
    100   S     219            10.2100000    0.448294849454
    100   S     220             3.8380000    0.278085928395
    100   S     221             0.7466000    0.015431561233

    101   S     222          9046.0000000   -0.000304990096
    101   S     223          1357.0000000   -0.002408026379
    101   S     224           309.3000000   -0.011944448725
    101   S     225            87.7300000   -0.048925992909
    101   S     226            28.5600000   -0.134472724725
    101   S     227            10.2100000   -0.315112577700
    101   S     228             3.8380000   -0.242857832550
    101   S     229             0.7466000    1.094382206854

    102   S     230             0.2248000    1.000000000000

    103   P     231            13.5500000    0.058905676772
    103   P     232             2.9170000    0.320461106714
    103   P     233             0.7973000    0.753042061792

    104   P     234             0.2185000    1.000000000000

    105   D     235             0.8170000    1.000000000000

    106   S     236             0.0612400    1.000000000000

    107   P     237             0.0561100    1.000000000000

    108   D     238             0.2300000    1.000000000000

 TOTAL NUMBER OF BASIS SET SHELLS             =  108
 NUMBER OF CARTESIAN GAUSSIAN BASIS FUNCTIONS =  256
 NOTE: THIS RUN WILL RESTRICT THE MO VARIATION SPACE TO SPHERICAL HARMONICS.
 THE NUMBER OF ORBITALS KEPT IN THE VARIATIONAL SPACE WILL BE PRINTED LATER.
 NUMBER OF ELECTRONS                          =   52
 CHARGE OF MOLECULE                           =    1
 SPIN MULTIPLICITY                            =    1
 NUMBER OF OCCUPIED ORBITALS (ALPHA)          =   26
 NUMBER OF OCCUPIED ORBITALS (BETA )          =   26
 TOTAL NUMBER OF ATOMS                        =   16
 THE NUCLEAR REPULSION ENERGY IS      266.4771007768

     $CONTRL OPTIONS
     ---------------
 SCFTYP=MCSCF        RUNTYP=ENERGY       EXETYP=RUN     
 MPLEVL=       0     CITYP =NONE         CCTYP =NONE         VBTYP =NONE    
 MULT  =       1     ICHARG=       1     NZVAR =       0     COORD =UNIQUE  
 PP    =NONE         RELWFN=NONE         LOCAL =NONE         NUMGRD=       F
 ISPHER=       1     NOSYM =       0     MAXIT =     100     UNITS =ANGS    
 PLTORB=       F     MOLPLT=       F     AIMPAC=       F     FRIEND=        
 NPRINT=       7     IREST =       0     GEOM  =INPUT   
 NORMF =       0     NORMP =       0     ITOL  =      20     ICUT  =       9
 INTTYP=BEST         GRDTYP=BEST         QMTTOL= 1.0E-06

     $SYSTEM OPTIONS
     ---------------
  REPLICATED MEMORY=     1000000 WORDS (ON EVERY NODE).
 DISTRIBUTED MEMDDI=           0 MILLION WORDS IN AGGREGATE,
 MEMDDI DISTRIBUTED OVER   1 PROCESSORS IS           0 WORDS/PROCESSOR.
 TOTAL MEMORY REQUESTED ON EACH PROCESSOR=     1000000 WORDS.
 TIMLIM=      525600.00 MINUTES, OR   365.00 DAYS.
 PARALL= F  BALTYP=  NXTVAL  KDIAG=    0  COREFL= F

          ----------------
          PROPERTIES INPUT
          ----------------

     MOMENTS            FIELD           POTENTIAL          DENSITY
 IEMOM =       1   IEFLD =       0   IEPOT =       0   IEDEN =       0
 WHERE =COMASS     WHERE =NUCLEI     WHERE =NUCLEI     WHERE =NUCLEI  
 OUTPUT=BOTH       OUTPUT=BOTH       OUTPUT=BOTH       OUTPUT=BOTH    
 IEMINT=       0   IEFINT=       0                     IEDINT=       0
                                                       MORB  =       0

     -------------------------------
     INTEGRAL TRANSFORMATION OPTIONS
     -------------------------------
     NWORD  =       0     CUTOFF = 1.0E-09
     MPTRAN =       0     DIRTRF =       F
     AOINTS =DUP     

          ----------------------
          MCSCF INPUT PARAMETERS
          ----------------------
 CONVERGER SELECTION: FOCAS = F  SOSCF = T  FULLNR = F  QUD = F  JACOBI = F
 SECULAR EQUATION METHOD CISTEP = GUGA    
 --- GENERAL INPUT OPTIONS:
 MAXIT =    1000  MICIT =       5  ACURCY= 1.000E-05
 DAMP  =   0.000  CANONC=       T  ENGTOL= 1.000E-10
 EKT   =       F  NPUNCH=       2  NWORD =         0
 --- INPUT FOR SOSCF CONVERGER:
 FORS  =       T  NOFO  =       1

          ----------------------
          INTEGRAL INPUT OPTIONS
          ----------------------
 NOPK  =       1 NORDER=       0 SCHWRZ=       T

     ------------------------------------------
     THE POINT GROUP IS C1 , NAXIS= 0, ORDER= 1
     ------------------------------------------

 -- VARIATIONAL SPACE WILL BE RESTRICTED TO PURE SPHERICAL HARMONICS ONLY --
 AFTER EXCLUDING CONTAMINANT COMBINATIONS FROM THE CARTESIAN GAUSSIAN BASIS
 SET, THE NUMBER OF SPHERICAL HARMONICS KEPT IN THE VARIATION SPACE IS  242

     DIMENSIONS OF THE SYMMETRY SUBSPACES ARE
 A   =  242

 ..... DONE SETTING UP THE RUN .....
 STEP CPU TIME =     0.05 TOTAL CPU TIME =        0.1 (    0.0 MIN)
 TOTAL WALL CLOCK TIME=        0.0 SECONDS, CPU UTILIZATION IS 100.00%

          ********************
          1 ELECTRON INTEGRALS
          ********************
 TIME TO DO   DIPOLE INTEGRALS=      0.04
 ...... END OF ONE-ELECTRON INTEGRALS ......
 STEP CPU TIME =     0.04 TOTAL CPU TIME =        0.1 (    0.0 MIN)
 TOTAL WALL CLOCK TIME=        0.0 SECONDS, CPU UTILIZATION IS 100.00%

          -------------
          GUESS OPTIONS
          -------------
          GUESS =MOREAD            NORB  =     242          NORDER=       0
          MIX   =       F          PRTMO =       F          PUNMO =       F
          TOLZ  = 1.0E-08          TOLE  = 1.0E-05
          SYMDEN=       F          PURIFY=       F

 INITIAL GUESS ORBITALS GENERATED BY MOREAD   ROUTINE.

 STATISTICS FOR GENERATION OF SYMMETRY ORBITAL -Q- MATRIX
 NUMBER OF CARTESIAN ATOMIC ORBITALS=        256
 NUMBER OF SPHERICAL CONTAMINANTS DROPPED=    14
 NUMBER OF LINEARLY DEPENDENT MOS DROPPED=     0
 TOTAL NUMBER OF MOS IN VARIATION SPACE=     242

                    * * * * * WARNING * * * * *
 POSSIBLE LINEAR DEPENDENCE PROBLEMS DETECTED, INPUT QMTTOL= 1.0E-06,
 WITH     3 OVERLAP EIGENVALUES LYING BETWEEN 1.0E-05 AND QMTTOL.
 IF YOU EXPERIENCE SCF CONVERGENCE DIFFICULTIES WITH THE DENSITY ALMOST BUT
 NOT QUITE CONVERGED, YOU MAY NEED TO LOOSEN -QMTTOL- BY A FACTOR 5 TO 10.

 SYMMETRIES FOR INITIAL GUESS ORBITALS FOLLOW.   BOTH SET(S).
    27 ORBITALS ARE OCCUPIED (    7 CORE ORBITALS).
     1=A        2=A        3=A        4=A        5=A        6=A        7=A   
     8=A        9=A       10=A       11=A       12=A       13=A       14=A   
    15=A       16=A       17=A       18=A       19=A       20=A       21=A   
    22=A       23=A       24=A       25=A       26=A       27=A       28=A   
    29=A       30=A       31=A       32=A       33=A       34=A       35=A   
    36=A       37=A       38=A       39=A       40=A       41=A       42=A   
    43=A       44=A       45=A       46=A       47=A       48=A       49=A   
    50=A       51=A       52=A       53=A       54=A       55=A       56=A   
    57=A       58=A       59=A       60=A       61=A       62=A       63=A   
    64=A       65=A       66=A       67=A       68=A       69=A       70=A   
    71=A       72=A       73=A       74=A       75=A       76=A       77=A   
    78=A       79=A       80=A       81=A       82=A       83=A       84=A   
    85=A       86=A       87=A       88=A       89=A       90=A       91=A   
    92=A       93=A       94=A       95=A       96=A       97=A       98=A   
    99=A      100=A      101=A      102=A      103=A      104=A      105=A   
   106=A      107=A      108=A      109=A      110=A      111=A      112=A   
   113=A      114=A      115=A      116=A      117=A      118=A      119=A   
   120=A      121=A      122=A      123=A      124=A      125=A      126=A   
   127=A      128=A      129=A      130=A      131=A      132=A      133=A   
   134=A      135=A      136=A      137=A      138=A      139=A      140=A   
   141=A      142=A      143=A      144=A      145=A      146=A      147=A   
   148=A      149=A      150=A      151=A      152=A      153=A      154=A   
   155=A      156=A      157=A      158=A      159=A      160=A      161=A   
   162=A      163=A      164=A      165=A      166=A      167=A      168=A   
   169=A      170=A      171=A      172=A      173=A      174=A      175=A   
   176=A      177=A      178=A      179=A      180=A      181=A      182=A   
   183=A      184=A      185=A      186=A      187=A      188=A      189=A   
   190=A      191=A      192=A      193=A      194=A      195=A      196=A   
   197=A      198=A      199=A      200=A      201=A      202=A      203=A   
   204=A      205=A      206=A      207=A      208=A      209=A      210=A   
   211=A      212=A      213=A      214=A      215=A      216=A      217=A   
   218=A      219=A      220=A      221=A      222=A      223=A      224=A   
   225=A      226=A      227=A      228=A      229=A      230=A      231=A   
   232=A      233=A      234=A      235=A      236=A      237=A      238=A   
   239=A      240=A      241=A      242=A   
 ...... END OF INITIAL ORBITAL SELECTION ......
 STEP CPU TIME =     0.09 TOTAL CPU TIME =        0.2 (    0.0 MIN)
 TOTAL WALL CLOCK TIME=        0.0 SECONDS, CPU UTILIZATION IS 100.00%

                    ----------------------
                    AO INTEGRAL TECHNOLOGY
                    ----------------------
     S,P,L SHELL ROTATED AXIS INTEGRALS, REPROGRAMMED BY
        KAZUYA ISHIMURA (IMS) AND JOSE SIERRA (SYNSTAR).
     S,P,D,L SHELL ROTATED AXIS INTEGRALS PROGRAMMED BY
        KAZUYA ISHIMURA (INSTITUTE FOR MOLECULAR SCIENCE).
     S,P,D,F,G SHELL TO TOTAL QUARTET ANGULAR MOMENTUM SUM 5,
        ERIC PROGRAM BY GRAHAM FLETCHER (ELORET AND NASA ADVANCED
        SUPERCOMPUTING DIVISION, AMES RESEARCH CENTER).
     S,P,D,F,G,L SHELL GENERAL RYS QUADRATURE PROGRAMMED BY
        MICHEL DUPUIS (PACIFIC NORTHWEST NATIONAL LABORATORY).

          --------------------
          2 ELECTRON INTEGRALS
          --------------------

 THE -PK- OPTION IS OFF, THE INTEGRALS ARE NOT IN SUPERMATRIX FORM.
 STORING   15000 INTEGRALS/RECORD ON DISK, USING 16 BYTES/INTEGRAL.
 TWO ELECTRON INTEGRAL EVALUATION REQUIRES   96282 WORDS OF MEMORY.
 SCHWARZ INEQUALITY OVERHEAD:     31899 INTEGRALS, T=        0.01
 II,JST,KST,LST =  1  1  1  1 NREC =         1 INTLOC =    1
 II,JST,KST,LST =  2  1  1  1 NREC =         1 INTLOC =    2
 II,JST,KST,LST =  3  1  1  1 NREC =         1 INTLOC =    7
 II,JST,KST,LST =  4  1  1  1 NREC =         1 INTLOC =   34
 II,JST,KST,LST =  5  1  1  1 NREC =         1 INTLOC =   67
 II,JST,KST,LST =  6  1  1  1 NREC =         1 INTLOC =  214
 II,JST,KST,LST =  7  1  1  1 NREC =         1 INTLOC =  528
 II,JST,KST,LST =  8  1  1  1 NREC =         1 INTLOC =  959
 II,JST,KST,LST =  9  1  1  1 NREC =         1 INTLOC = 2726
 II,JST,KST,LST = 10  1  1  1 NREC =         1 INTLOC = 3731
 II,JST,KST,LST = 11  1  1  1 NREC =         1 INTLOC = 7458
 II,JST,KST,LST = 12  1  1  1 NREC =         1 INTLOC = 9388
 II,JST,KST,LST = 13  1  1  1 NREC =         1 INTLOC =11684
 II,JST,KST,LST = 14  1  1  1 NREC =         2 INTLOC = 4282
 II,JST,KST,LST = 15  1  1  1 NREC =         2 INTLOC = 8029
 II,JST,KST,LST = 16  1  1  1 NREC =         3 INTLOC = 5222
 II,JST,KST,LST = 17  1  1  1 NREC =         3 INTLOC =10879
 II,JST,KST,LST = 18  1  1  1 NREC =         4 INTLOC = 3181
 II,JST,KST,LST = 19  1  1  1 NREC =         5 INTLOC = 8061
 II,JST,KST,LST = 20  1  1  1 NREC =         6 INTLOC = 3509
 II,JST,KST,LST = 21  1  1  1 NREC =         8 INTLOC = 6575
 II,JST,KST,LST = 22  1  1  1 NREC =         9 INTLOC = 3068
 II,JST,KST,LST = 23  1  1  1 NREC =        10 INTLOC = 3745
 II,JST,KST,LST = 24  1  1  1 NREC =        12 INTLOC =10753
 II,JST,KST,LST = 25  1  1  1 NREC =        14 INTLOC = 1352
 II,JST,KST,LST = 26  1  1  1 NREC =        18 INTLOC = 3387
 II,JST,KST,LST = 27  1  1  1 NREC =        19 INTLOC = 7247
 II,JST,KST,LST = 28  1  1  1 NREC =        21 INTLOC = 4682
 II,JST,KST,LST = 29  1  1  1 NREC =        25 INTLOC = 1442
 II,JST,KST,LST = 30  1  1  1 NREC =        27 INTLOC = 7675
 II,JST,KST,LST = 31  1  1  1 NREC =        34 INTLOC = 2293
 II,JST,KST,LST = 32  1  1  1 NREC =        35 INTLOC =13600
 II,JST,KST,LST = 33  1  1  1 NREC =        38 INTLOC = 8877
 II,JST,KST,LST = 34  1  1  1 NREC =        43 INTLOC =10432
 II,JST,KST,LST = 35  1  1  1 NREC =        47 INTLOC = 6401
 II,JST,KST,LST = 36  1  1  1 NREC =        56 INTLOC = 9208
 II,JST,KST,LST = 37  1  1  1 NREC =        59 INTLOC = 5323
 II,JST,KST,LST = 38  1  1  1 NREC =        63 INTLOC = 4236
 II,JST,KST,LST = 39  1  1  1 NREC =        71 INTLOC =  325
 II,JST,KST,LST = 40  1  1  1 NREC =        76 INTLOC = 7967
 II,JST,KST,LST = 41  1  1  1 NREC =        89 INTLOC = 7846
 II,JST,KST,LST = 42  1  1  1 NREC =        93 INTLOC =  470
 II,JST,KST,LST = 43  1  1  1 NREC =        98 INTLOC = 1336
 II,JST,KST,LST = 44  1  1  1 NREC =       107 INTLOC =11669
 II,JST,KST,LST = 45  1  1  1 NREC =       115 INTLOC = 5096
 II,JST,KST,LST = 46  1  1  1 NREC =       131 INTLOC = 6844
 II,JST,KST,LST = 47  1  1  1 NREC =       138 INTLOC = 2624
 II,JST,KST,LST = 48  1  1  1 NREC =       146 INTLOC =  881
 II,JST,KST,LST = 49  1  1  1 NREC =       155 INTLOC =10148
 II,JST,KST,LST = 50  1  1  1 NREC =       178 INTLOC =12338
 II,JST,KST,LST = 51  1  1  1 NREC =       209 INTLOC = 3799
 II,JST,KST,LST = 52  1  1  1 NREC =       271 INTLOC = 2109
 II,JST,KST,LST = 53  1  1  1 NREC =       286 INTLOC = 4147
 II,JST,KST,LST = 54  1  1  1 NREC =       329 INTLOC = 4554
 II,JST,KST,LST = 55  1  1  1 NREC =       426 INTLOC =13818
 II,JST,KST,LST = 56  1  1  1 NREC =       443 INTLOC = 9931
 II,JST,KST,LST = 57  1  1  1 NREC =       462 INTLOC = 9063
 II,JST,KST,LST = 58  1  1  1 NREC =       484 INTLOC = 1162
 II,JST,KST,LST = 59  1  1  1 NREC =       539 INTLOC = 6520
 II,JST,KST,LST = 60  1  1  1 NREC =       606 INTLOC = 1688
 II,JST,KST,LST = 61  1  1  1 NREC =       744 INTLOC =  918
 II,JST,KST,LST = 62  1  1  1 NREC =       775 INTLOC = 1770
 II,JST,KST,LST = 63  1  1  1 NREC =       863 INTLOC =12350
 II,JST,KST,LST = 64  1  1  1 NREC =      1057 INTLOC =11335
 II,JST,KST,LST = 65  1  1  1 NREC =      1090 INTLOC = 8491
 II,JST,KST,LST = 66  1  1  1 NREC =      1127 INTLOC = 1985
 II,JST,KST,LST = 67  1  1  1 NREC =      1167 INTLOC =10552
 II,JST,KST,LST = 68  1  1  1 NREC =      1273 INTLOC =12030
 II,JST,KST,LST = 69  1  1  1 NREC =      1397 INTLOC = 6771
 II,JST,KST,LST = 70  1  1  1 NREC =      1650 INTLOC = 3524
 II,JST,KST,LST = 71  1  1  1 NREC =      1704 INTLOC =11478
 II,JST,KST,LST = 72  1  1  1 NREC =      1860 INTLOC = 1567
 II,JST,KST,LST = 73  1  1  1 NREC =      2194 INTLOC =  421
 II,JST,KST,LST = 74  1  1  1 NREC =      2245 INTLOC = 9998
 II,JST,KST,LST = 75  1  1  1 NREC =      2304 INTLOC = 6388
 II,JST,KST,LST = 76  1  1  1 NREC =      2370 INTLOC = 4793
 II,JST,KST,LST = 77  1  1  1 NREC =      2539 INTLOC =  693
 II,JST,KST,LST = 78  1  1  1 NREC =      2738 INTLOC =10289
 II,JST,KST,LST = 79  1  1  1 NREC =      3132 INTLOC = 9893
 II,JST,KST,LST = 80  1  1  1 NREC =      3220 INTLOC = 6224
 II,JST,KST,LST = 81  1  1  1 NREC =      3470 INTLOC =12203
 II,JST,KST,LST = 82  1  1  1 NREC =      3988 INTLOC =10128
 II,JST,KST,LST = 83  1  1  1 NREC =      4063 INTLOC = 2002
 II,JST,KST,LST = 84  1  1  1 NREC =      4148 INTLOC =11022
 II,JST,KST,LST = 85  1  1  1 NREC =      4249 INTLOC =13756
 II,JST,KST,LST = 86  1  1  1 NREC =      4494 INTLOC = 4045
 II,JST,KST,LST = 87  1  1  1 NREC =      4797 INTLOC = 2135
 II,JST,KST,LST = 88  1  1  1 NREC =      5357 INTLOC =10762
 II,JST,KST,LST = 89  1  1  1 NREC =      5487 INTLOC =13325
 II,JST,KST,LST = 90  1  1  1 NREC =      5858 INTLOC = 9391
 II,JST,KST,LST = 91  1  1  1 NREC =      6615 INTLOC = 6538
 II,JST,KST,LST = 92  1  1  1 NREC =      6704 INTLOC = 2825
 II,JST,KST,LST = 93  1  1  1 NREC =      6808 INTLOC = 9909
 II,JST,KST,LST = 94  1  1  1 NREC =      6936 INTLOC =10784
 II,JST,KST,LST = 95  1  1  1 NREC =      7231 INTLOC = 1832
 II,JST,KST,LST = 96  1  1  1 NREC =      7611 INTLOC =14574
 II,JST,KST,LST = 97  1  1  1 NREC =      8280 INTLOC =  925
 II,JST,KST,LST = 98  1  1  1 NREC =      8459 INTLOC = 1629
 II,JST,KST,LST = 99  1  1  1 NREC =      8970 INTLOC = 1518
 II,JST,KST,LST =100  1  1  1 NREC =      9895 INTLOC = 1106
 II,JST,KST,LST =101  1  1  1 NREC =     10003 INTLOC = 8193
 II,JST,KST,LST =102  1  1  1 NREC =     10132 INTLOC = 3404
 II,JST,KST,LST =103  1  1  1 NREC =     10290 INTLOC = 8720
 II,JST,KST,LST =104  1  1  1 NREC =     10650 INTLOC = 7714
 II,JST,KST,LST =105  1  1  1 NREC =     11118 INTLOC = 8432
 II,JST,KST,LST =106  1  1  1 NREC =     11928 INTLOC = 8781
 II,JST,KST,LST =107  1  1  1 NREC =     12163 INTLOC = 4848
 II,JST,KST,LST =108  1  1  1 NREC =     12830 INTLOC = 4219
 SCHWARZ INEQUALITY TEST SKIPPED   3092563 INTEGRAL BLOCKS.
 TOTAL NUMBER OF NONZERO TWO-ELECTRON INTEGRALS =           209199521
      13947 INTEGRAL RECORDS WERE STORED ON DISK FILE  8.
  ...... END OF TWO-ELECTRON INTEGRALS .....
 STEP CPU TIME =    17.92 TOTAL CPU TIME =       18.1 (    0.3 MIN)
 TOTAL WALL CLOCK TIME=       16.0 SECONDS, CPU UTILIZATION IS 113.13%

          -----------------
          MCSCF CALCULATION
          -----------------

 ----- NUCLEAR ENERGY ----- =       266.4771007768

          -----------------------     ----------------------------
          GUGA DISTINCT ROW TABLE     WRITTEN BY B.R.BROOKS,P.SAXE
          -----------------------     ----------------------------

      GROUP=C1           NPRT=       2
       FORS=       T   INTACT=       F
       FOCI=       F   MXNINT=  600000
       SOCI=       F   MXNEME=   10000
     IEXCIT=       0

      -CORE-    -INTERNAL-  -EXTERNAL-
     NFZC=   0   NDOC=   1   NEXT=   0
     NMCC=  25   NAOS=   0   NFZV=   0
                 NBOS=   0
                 NALP=   0
                 NVAL=   1

 THE MAXIMUM ELECTRON EXCITATION WILL BE   2

 SYMMETRIES FOR THE  25 CORE,   2 ACTIVE,   0 EXTERNAL MO-S ARE
     CORE= A     A     A     A     A     A     A     A     A     A   
           A     A     A     A     A     A     A     A     A     A   
           A     A     A     A     A   
   ACTIVE= A     A   
           DOC   VAL 

 MOLECULAR CHARGE          =    1
 NUMBER OF ALPHA ELECTRONS =   26
 NUMBER OF  BETA ELECTRONS =   26

 THE ELECTRONIC STATE IS  1-A   

 THE DISTINCT ROW TABLE HAS         5 ROWS.
  THE WAVEFUNCTION CONTAINS         3 WALKS (CSF-S).


          DETERMINANT CONTRIBUTION TO CSF'S (BETA IS MINUS)
          -------------------------------------------------
 CASE VECTOR =       1
 14

 FOR MS=S-0
 CSF      1: C(  1)= 1.000000 :   26-26
 CASE VECTOR =       2
 23

 FOR MS=S-0
 CSF      2: C(  1)=-0.707107 :  -27 26
             C(  2)= 0.707107 :   27-26
 CASE VECTOR =       3
 41

 FOR MS=S-0
 CSF      3: C(  1)= 1.000000 :   27-27

 TOTAL NUMBER OF INTEGRALS =          9
 NUMBER OF INTEGRALS/GROUP =          9
 NUMBER OF INTEGRAL GROUPS =          1
 MAXIMUM RECORD SIZES ARE     200 FOR UNIT 11      22 FOR UNIT 12
                            30001 FOR UNIT 15   30001 FOR UNIT 16
 ...... END OF -DRT- GENERATION ...... 
 STEP CPU TIME =     0.01 TOTAL CPU TIME =       18.1 (    0.3 MIN)
 TOTAL WALL CLOCK TIME=       16.0 SECONDS, CPU UTILIZATION IS 113.19%
 OPENING FILE DAFL30 WITH      81 LOGICAL RECORDS OF   65536 WORDS
 WITH A MAXIMUM OF        2592 PHYSICAL RECORDS OF    2048 WORDS

          ------------------------------
          CASSCF INTEGRAL TRANSFORMATION
          ------------------------------
 AO INTEGRALS WILL BE READ IN FROM DISK...
 MEMORY WHICH WOULD BE NEEDED FOR SINGLE PASS TRANSFORMATION =   17201713

 ----- CHOOSING TWO STEPS TRANSFORMATION -----
 NUMBER OF WORDS USED      =     358961
 NUMBER OF WORDS AVAILABLE =    1000000

 ----- NUCLEAR REPULSION ENERGY =    266.47710078
 ----- FROZEN CORE ENERGY       =   -568.61748707

 ... SYMMETRY ...           CPU =    0.04
 ... (PQ|RS) -> (PQ|KL) ... CPU =    5.22
 ... (PQ|KL) -> (IJ|KL) ... CPU =    0.01

 NUMBER OF (PQ|KL) INTEGRALS WRITTEN      54246
 NUMBER OF (IJ|KL) INTEGRALS WRITTEN          6
 ..... END OF CAS INTEGRAL TRANSFORMATION .....
 STEP CPU TIME =     5.27 TOTAL CPU TIME =       23.4 (    0.4 MIN)
 TOTAL WALL CLOCK TIME=       22.0 SECONDS, CPU UTILIZATION IS 106.27%

          ------------------------
          GUGA-CI INTEGRAL SORTING
          ------------------------

    630017 WORDS NEEDED TO SORT              9 GUGA INTEGRALS IN MEMORY
   1000000 WORDS ARE AVAILABLE
 CHOOSING IN-MEMORY SORTING...
 IN CORE ALGORITHM SORTED              3 NON-ZERO 1E- INTEGRALS
 IN CORE ALGORITHM SORTED              6 NON-ZERO 2E- INTEGRALS
 ...... END OF INTEGRAL SORTING ...... 
 STEP CPU TIME =     0.00 TOTAL CPU TIME =       23.4 (    0.4 MIN)
 TOTAL WALL CLOCK TIME=       22.0 SECONDS, CPU UTILIZATION IS 106.27%

 -------------------------     ---------------------------------------
 ENERGY MATRIX CALCULATION     WRITTEN BY B.R.BROOKS,W.D.LAIDIG,P.SAXE
 -------------------------     ---------------------------------------

 COMPUTING THE HAMILTONIAN FOR THE         3 CSF-S...

           8 IS THE TOTAL NUMBER OF GENERATED LOOPS
           8 WERE CREATED BY THE LOOP-DRIVEN ALGORITHM
           0 WERE CREATED IMPLICITLY

           6 IS THE TOTAL NUMBER OF PROCESSED LOOPS
           5     DIAGONAL LOOPS ARE STORED ON WORK15 IN     1 BUFFERS OF  10000 ELEMENTS.
           1 OFF DIAGONAL LOOPS ARE STORED ON WORK16 IN     1 BUFFERS OF  10000 ELEMENTS.
 ...... END OF ENERGY MATRIX CALCULATION ...... 
 STEP CPU TIME =     0.01 TOTAL CPU TIME =       23.4 (    0.4 MIN)
 TOTAL WALL CLOCK TIME=       22.0 SECONDS, CPU UTILIZATION IS 106.32%

          -----------------------------------------
          DAVIDSON METHOD CI-MATRIX DIAGONALIZATION
                   WRITTEN BY STEVE ELBERT
          -----------------------------------------
 NUMBER OF STATES REQUESTED =     2
 MAX. NUMB. OF EXPAN. VEC   =    30
 MAX. NUMB. IMPROVED STATES =     2
 MAX. NUMB. OF ITERATIONS   =    50
 CONVERGENCE CRITERION      =    1.0E-05

 CHOOSING TO SOLVE SECULAR EQUATION IN MEMORY
 NUMBER OF WORDS AVAILABLE =    1000000
 NUMBER OF WORDS USED      =      31047
 ENERGY MATRIX BUFFER SIZE =      10000
 SOLUTION FOUND WITH DIRECT METHOD

 STATE #    1  ENERGY =    -303.311642554

      CSF      COEF    OCCUPANCY (IGNORING CORE)
      ---      ----    --------- --------- -----
        1    0.992989  20
        3   -0.118204  02

 STATE #    2  ENERGY =    -303.101624521

      CSF      COEF    OCCUPANCY (IGNORING CORE)
      ---      ----    --------- --------- -----
        2    1.000000  11

 RENORMALIZED DAVIDSON CORRECTION FOR     1-REFERENCE CI.
 C0SQ= 0.986028 EREF=     -303.306239 E-E(REF)=   0.005404 E(Q)=   0.000077
 GIVES A E(SD+Q) ESTIMATE OF     -303.3117191247
 ...... END OF CI-MATRIX DIAGONALIZATION ......
 STEP CPU TIME =     0.00 TOTAL CPU TIME =       23.4 (    0.4 MIN)
 TOTAL WALL CLOCK TIME=       22.0 SECONDS, CPU UTILIZATION IS 106.32%

          -------------------------------------
          2-PARTICLE DENSITY MATRIX CALCULATION
          -------------------------------------
 2 BODY DENSITY IS AN AVERAGE OF  2 STATE(S).
   STATE    WEIGHT          ENERGY
     1    0.500000     -303.3116425541
     2    0.500000     -303.1016245208
            8 -DM2- LOOPS WERE GENERATED
            8 WERE CREATED BY THE LOOP-DRIVEN ALGORITHM
            0 WERE CREATED IMPLICITLY
          1 RECORDS OF LENGTH600000 WRITTEN TO FILE 15
 ...... END OF 2-PARTICLE DENSITY MATRIX CALCULATION ......
 STEP CPU TIME =     0.01 TOTAL CPU TIME =       23.4 (    0.4 MIN)
 TOTAL WALL CLOCK TIME=       22.0 SECONDS, CPU UTILIZATION IS 106.36%

          ----------------------------------
          2-PARTICLE DENSITY MATRIX LABELING
          ----------------------------------
     646776 WORDS NEEDED TO LABEL DM2 MATRIX
          1 RECORDS OF LENGTH600000  READ FROM FILE 15
          1 RECORDS OF LENGTH 15000 WRITTEN TO FILE 16
 ...... END OF 2-PARTICLE DENSITY MATRIX LABELING ......
 STEP CPU TIME =     0.00 TOTAL CPU TIME =       23.4 (    0.4 MIN)
 TOTAL WALL CLOCK TIME=       22.0 SECONDS, CPU UTILIZATION IS 106.36%

          --------------
          -DM2- ORDERING
          --------------
      30010 WORDS NEEDED (   1000000 AVAILABLE) TO ORDER DM2 IN MEMORY
 CHOOSING IN MEMORY ORDERING...
                               1 RECORDS OF LENGTH 15000  READ FROM FILE 16
          4 DM2 VALUES IN      1 RECORDS OF LENGTH 15000 WRITTEN TO FILE 15
 ...... END OF -DM2- ORDERING ...... 
 STEP CPU TIME =     0.00 TOTAL CPU TIME =       23.4 (    0.4 MIN)
 TOTAL WALL CLOCK TIME=       22.0 SECONDS, CPU UTILIZATION IS 106.36%

          --------------------------------------
          APPROXIMATE SECOND-ORDER MCSCF PROGRAM
          --------------------------------------
          PROGRAM WRITTEN BY G.CHABAN, A.MARQUEZ, AND M.DUPUIS

  NUMBER OF WORDS NEEDED     =     525287
  NUMBER AVAILABLE           =    1000000

 ----- GAMMA(IJKL)*(PQ|KL) PRODUCTS ----- CPU TIME =      0.000
 ----- ORBITAL SYMMETRY             ----- CPU TIME =      0.000
 ----- FOCK OPERATORS CONSTRUCTION  ----- CPU TIME =      2.180
 ----- WARNING : CORE-ACTIVE GAP    =    0.33985
 ----- WARNING : ACTIVE-VIRTUAL GAP =    0.36989
     MICIT =   1 ASYMM =    0.027592 ROTMAX =    0.013172
 ----- EFFECTIVE FOCK + ROTATE ORBS ----- CPU TIME =      0.060
     MICIT =   2 ASYMM =    0.019494 ROTMAX =    0.002886
     MICIT =   3 ASYMM =    0.017719 ROTMAX =    0.004126
     MICIT =   4 ASYMM =    0.015185 ROTMAX =    0.004360
     MICIT =   5 ASYMM =    0.012616 ROTMAX =    0.003960
 ..... DONE WITH CASSCF ORBITAL UPDATE .....
 STEP CPU TIME =     2.57 TOTAL CPU TIME =       26.0 (    0.4 MIN)
 TOTAL WALL CLOCK TIME=       24.0 SECONDS, CPU UTILIZATION IS 108.21%

 ITER     TOTAL ENERGY      DEL(E)  LAGRANGIAN ASYMMETRY   SQCDF  MICIT   DAMP
   1     -303.206633537 -0.206633537  0.027592   27   25 1.317E-02  5   0.0000
       ----------START APPROXIMATE SECOND ORDER MCSCF----------
   2     -303.211942675 -0.005309138  0.010801   27   25 1.724E-03  1   0.0000
   3     -303.212823368 -0.000880693  0.002717   27   25 1.276E-03  1   0.0000
   4     -303.213051404 -0.000228036  0.001540   27   22 2.120E-04  1   0.0000
   5     -303.213103866 -0.000052462  0.000791   27   25 3.745E-04  1   0.0000
   6     -303.213132411 -0.000028545  0.000417   56   22 1.315E-05  1   0.0000
   7     -303.213135718 -0.000003307  0.000237   57   25 3.404E-06  1   0.0000
   8     -303.213136424 -0.000000706  0.000065   56   25 5.592E-07  1   0.0000
   9     -303.213136513 -0.000000089  0.000021   34   25 9.482E-08  1   0.0000
  10     -303.213136527 -0.000000014  0.000011   57   25 2.489E-08  1   0.0000
  11     -303.213136530 -0.000000003  0.000004   56   25 1.466E-09  1   0.0000

          --------------------
          LAGRANGIAN CONVERGED
          --------------------

 FINAL MCSCF ENERGY IS     -303.2131365301 AFTER  11 ITERATIONS

 -MCCI- BASED ON OPTIMIZED ORBITALS
 ----------------------------------

 PLEASE NOTE: IF THE ACTIVE ORBITALS ARE CANONICALIZED BELOW,
 THE FOLLOWING CI EXPANSION COEFFICIENTS AND THE DENSITY DO NOT
 CORRESPOND TO THE PRINTED ORBITALS.  THE PRINTED EXPANSIONS MATCH
 THE ORBITALS USED DURING THE LAST ITERATION.  IF YOU WISH TO SEE
 CI EXPANSIONS BASED ON THE CANONICAL (OR NATURAL) ORBITALS, YOU
 MUST RUN A CI CALCULATION WITH THAT ORBITAL CHOICE READ IN $VEC.

 STATE #    1  ENERGY =    -303.302749822

      CSF      COEF    OCCUPANCY (IGNORING CORE)
      ---      ----    --------- --------- -----
        1    0.995144  20
        2    0.000000  11
        3   -0.098435  02

 STATE #    2  ENERGY =    -303.123523238

      CSF      COEF    OCCUPANCY (IGNORING CORE)
      ---      ----    --------- --------- -----
        1    0.000000  20
        2    1.000000  11
        3    0.000000  02

 DENSITY MATRIX OVER ACTIVE MO-S

             1           2

    1    1.4903106
    2    0.0000000   0.5096894

 FORMING THE "STANDARD FOCK OPERATOR" USING INTEGRALS FROM DISK...
    25 FILLED,    2 ACTIVE, AND  215 VIRTUAL ORBITALS  WILL BE CANONICALIZED

          ----------------------
          MCSCF NATURAL ORBITALS
          ----------------------

                      1          2          3          4          5

                  -15.7699   -15.7699   -11.4759   -11.4759   -11.4216

    1  H  1  S   -0.000001  -0.000013   0.000000  -0.000039   0.000311
    2  H  1  S   -0.000150  -0.002476   0.000004   0.001887  -0.003283
    3  H  1  X    0.000000   0.000000   0.000000   0.000000   0.000000
    4  H  1  Y   -0.000079   0.000005   0.000071   0.000000   0.000000
    5  H  1  Z    0.000002   0.000036   0.000000  -0.000045   0.000094
    6  H  1  S    0.000040   0.000666   0.000009   0.004002  -0.007002
    7  H  1  X    0.000000   0.000000   0.000000   0.000000   0.000000
    8  H  1  Y    0.000516  -0.000031  -0.002816   0.000006   0.000000
    9  H  1  Z    0.000024   0.000400  -0.000001  -0.000596   0.000354
   10  H  2  S    0.000057  -0.000071  -0.000059   0.000105  -0.000029
   11  H  2  S    0.003544  -0.000829  -0.003195   0.002400   0.000332
   12  H  2  X    0.000000   0.000000   0.000000   0.000000   0.000000
   13  H  2  Y    0.000011   0.000004  -0.000035   0.000018   0.000024
   14  H  2  Z   -0.000016  -0.000011  -0.000072   0.000116   0.000093
   15  H  2  S    0.000671  -0.000530   0.000965   0.001259   0.001877
   16  H  2  X    0.000000   0.000000   0.000000   0.000000   0.000000
   17  H  2  Y   -0.000534   0.000237  -0.001915   0.000665  -0.000332
   18  H  2  Z    0.000901  -0.000131  -0.001053   0.000933   0.000489
   19  H  3  S   -0.000065  -0.000064   0.000059   0.000105  -0.000029
   20  H  3  S   -0.003618  -0.000396   0.003205   0.002385   0.000332
   21  H  3  X    0.000000   0.000000   0.000000   0.000000   0.000000
   22  H  3  Y    0.000011  -0.000006  -0.000035  -0.000017  -0.000024
   23  H  3  Z    0.000015  -0.000013   0.000073   0.000115   0.000093
   24  H  3  S   -0.000730  -0.000445  -0.000959   0.001263   0.001877
   25  H  3  X    0.000000   0.000000   0.000000   0.000000   0.000000
   26  H  3  Y   -0.000558  -0.000171  -0.001918  -0.000657   0.000332
   27  H  3  Z   -0.000910  -0.000022   0.001057   0.000928   0.000489
   28  H  4  S    0.000186  -0.000190  -0.000303   0.000297  -0.000057
   29  H  4  S   -0.003681   0.002005  -0.001254   0.004418   0.006017
   30  H  4  X    0.000000   0.000000   0.000000   0.000000   0.000000
   31  H  4  Y    0.000004  -0.000034   0.000010  -0.000007   0.000121
   32  H  4  Z   -0.000101   0.000095  -0.000027   0.000082   0.000038
   33  H  4  S   -0.000261  -0.000256   0.002288  -0.001550   0.002728
   34  H  4  X    0.000000   0.000000   0.000000   0.000000   0.000000
   35  H  4  Y    0.000025   0.000414  -0.001974   0.001088   0.000284
   36  H  4  Z    0.001187  -0.000734   0.000548  -0.001503  -0.001738
   37  H  5  S   -0.000207  -0.000166   0.000304   0.000296  -0.000057
   38  H  5  S    0.003896   0.001547   0.001274   0.004412   0.006017
   39  H  5  X    0.000000   0.000000   0.000000   0.000000   0.000000
   40  H  5  Y    0.000008   0.000033   0.000010   0.000007  -0.000121
   41  H  5  Z    0.000112   0.000082   0.000027   0.000082   0.000038
   42  H  5  S    0.000228  -0.000285  -0.002295  -0.001540   0.002728
   43  H  5  X    0.000000   0.000000   0.000000   0.000000   0.000000
   44  H  5  Y   -0.000025  -0.000414  -0.001979  -0.001080  -0.000284
   45  H  5  Z   -0.001267  -0.000586  -0.000555  -0.001501  -0.001738
   46  H  6  S   -0.000138   0.000160   0.000145  -0.000145  -0.000012
   47  H  6  S   -0.001658   0.002542   0.000868  -0.001262  -0.001562
   48  H  6  X    0.000000   0.000000   0.000000   0.000000   0.000000
   49  H  6  Y   -0.000002   0.000012  -0.000013  -0.000001  -0.000034
   50  H  6  Z    0.000193  -0.000206  -0.000157   0.000183   0.000055
   51  H  6  S    0.000363  -0.000650   0.000325  -0.001072   0.000232
   52  H  6  X    0.000000   0.000000   0.000000   0.000000   0.000000
   53  H  6  Y    0.000100  -0.000136  -0.000447   0.000393   0.000290
   54  H  6  Z   -0.000506   0.000749   0.000153  -0.000320  -0.000590
   55  H  7  S    0.000156   0.000142  -0.000146  -0.000144  -0.000012
   56  H  7  S    0.001952   0.002324  -0.000874  -0.001258  -0.001562
   57  H  7  X    0.000000   0.000000   0.000000   0.000000   0.000000
   58  H  7  Y   -0.000003  -0.000011  -0.000013   0.000001   0.000034
   59  H  7  Z   -0.000216  -0.000181   0.000158   0.000183   0.000055
   60  H  7  S   -0.000438  -0.000601  -0.000330  -0.001071   0.000232
   61  H  7  X    0.000000   0.000000   0.000000   0.000000   0.000000
   62  H  7  Y    0.000116   0.000123  -0.000449  -0.000391  -0.000290
   63  H  7  Z    0.000592   0.000682  -0.000154  -0.000320  -0.000590
   64  H  8  S   -0.000101   0.000099   0.000171  -0.000160  -0.000009
   65  H  8  S   -0.002144   0.003228   0.000188   0.001241   0.000217
   66  H  8  X    0.000000   0.000000   0.000000   0.000000   0.000000
   67  H  8  Y   -0.000143   0.000176   0.000139  -0.000147   0.000004
   68  H  8  Z   -0.000142   0.000158   0.000087  -0.000110  -0.000034
   69  H  8  S    0.000407  -0.000522   0.000755  -0.000531  -0.000463
   70  H  8  X    0.000000   0.000000   0.000000   0.000000   0.000000
   71  H  8  Y    0.000494  -0.000850   0.000005  -0.000253  -0.000066
   72  H  8  Z    0.000430  -0.000596  -0.000022  -0.000177  -0.000063
   73  H  9  S    0.000112   0.000086  -0.000172  -0.000159  -0.000009
   74  H  9  S    0.002517   0.002947  -0.000182   0.001242   0.000217
   75  H  9  X    0.000000   0.000000   0.000000   0.000000   0.000000
   76  H  9  Y   -0.000163  -0.000157   0.000140   0.000147  -0.000004
   77  H  9  Z    0.000160   0.000139  -0.000088  -0.000110  -0.000034
   78  H  9  S   -0.000467  -0.000469  -0.000758  -0.000528  -0.000463
   79  H  9  X    0.000000   0.000000   0.000000   0.000000   0.000000
   80  H  9  Y    0.000592   0.000784   0.000006   0.000253   0.000066
   81  H  9  Z   -0.000498  -0.000540   0.000022  -0.000177  -0.000063
   82  C 10  S    0.000004   0.000067  -0.000001  -0.000432   1.003670
   83  C 10  S    0.000007   0.000115  -0.000002  -0.000731   0.008089
   84  C 10  S    0.000337   0.005572   0.000056   0.024968  -0.044596
   85  C 10  X    0.000000   0.000000   0.000000   0.000000   0.000000
   86  C 10  Y   -0.000039   0.000002   0.000074   0.000000   0.000000
   87  C 10  Z    0.000000   0.000007   0.000000   0.000033  -0.000087
   88  C 10  X    0.000000   0.000000   0.000000   0.000000   0.000000
   89  C 10  Y   -0.002599   0.000157  -0.052874   0.000119   0.000000
   90  C 10  Z   -0.000209  -0.003459  -0.000027  -0.012101   0.006937
   91  C 10 XX    0.000002   0.000026   0.000000  -0.000168  -0.000662
   92  C 10 YY   -0.000007  -0.000114   0.000001   0.000281   0.000580
   93  C 10 ZZ    0.000005   0.000088   0.000000  -0.000113   0.000081
   94  C 10 XY    0.000000   0.000000   0.000000   0.000000   0.000000
   95  C 10 XZ    0.000000   0.000000   0.000000   0.000000   0.000000
   96  C 10 YZ    0.000071  -0.000004  -0.000005   0.000000   0.000000
   97  C 10  S    0.000176   0.002913   0.000017   0.007793  -0.062557
   98  C 10  X    0.000000   0.000000   0.000000   0.000000   0.000000
   99  C 10  Y    0.001706  -0.000103  -0.012582   0.000028   0.000000
  100  C 10  Z    0.000140   0.002322  -0.000003  -0.001433   0.013431
  101  C 10 XX    0.000010   0.000162   0.000000  -0.000142   0.004774
  102  C 10 YY   -0.000123  -0.002029  -0.000005  -0.002429  -0.009930
  103  C 10 ZZ    0.000113   0.001867   0.000006   0.002572   0.005156
  104  C 10 XY    0.000000   0.000000   0.000000   0.000000   0.000000
  105  C 10 XZ    0.000000   0.000000   0.000000   0.000000   0.000000
  106  C 10 YZ    0.002084  -0.000126   0.014097  -0.000032   0.000000
  107  C 11  S   -0.000019  -0.000038  -0.005554   0.005335   0.022998
  108  C 11  S   -0.000019  -0.000074  -0.000245  -0.000177   0.000015
  109  C 11  S   -0.002015   0.007114   0.008119   0.015661   0.013557
  110  C 11  X    0.000000   0.000000   0.000000   0.000000   0.000000
  111  C 11  Y    0.000059  -0.000087  -0.000033   0.000130  -0.000149
  112  C 11  Z    0.000025  -0.000011  -0.000068  -0.000007   0.000045
  113  C 11  X    0.000000   0.000000   0.000000   0.000000   0.000000
  114  C 11  Y   -0.003367   0.004377  -0.049513   0.020919  -0.013452
  115  C 11  Z   -0.000318   0.003984  -0.001299   0.010262   0.006998
  116  C 11 XX   -0.000005  -0.000033  -0.000099   0.000120   0.000174
  117  C 11 YY    0.000050  -0.000049  -0.000015   0.000040  -0.000036
  118  C 11 ZZ   -0.000045   0.000082   0.000114  -0.000160  -0.000138
  119  C 11 XY    0.000000   0.000000   0.000000   0.000000   0.000000
  120  C 11 XZ    0.000000   0.000000   0.000000   0.000000   0.000000
  121  C 11 YZ   -0.000014  -0.000013  -0.000065   0.000067   0.000119
  122  C 11  S    0.001012  -0.002502  -0.002612   0.006489   0.030747
  123  C 11  X    0.000000   0.000000   0.000000   0.000000   0.000000
  124  C 11  Y    0.001901  -0.001095  -0.014503   0.002679  -0.009167
  125  C 11  Z    0.001050  -0.001166  -0.002884   0.001797   0.004279
  126  C 11 XX   -0.000590   0.000408   0.000435  -0.000062  -0.000531
  127  C 11 YY    0.002347  -0.002305  -0.000244  -0.002482  -0.001404
  128  C 11 ZZ   -0.001758   0.001897  -0.000191   0.002545   0.001934
  129  C 11 XY    0.000000   0.000000   0.000000   0.000000   0.000000
  130  C 11 XZ    0.000000   0.000000   0.000000   0.000000   0.000000
  131  C 11 YZ   -0.000912   0.001126  -0.013525   0.004877  -0.003664
  132  C 12  S    0.000014  -0.000040   0.005578   0.005310   0.022998
  133  C 12  S    0.000010  -0.000076   0.000245  -0.000178   0.000015
  134  C 12  S    0.002857   0.006820  -0.008049   0.015697   0.013557
  135  C 12  X    0.000000   0.000000   0.000000   0.000000   0.000000
  136  C 12  Y    0.000069   0.000079  -0.000034  -0.000130   0.000149
  137  C 12  Z   -0.000026  -0.000008   0.000068  -0.000007   0.000045
  138  C 12  X    0.000000   0.000000   0.000000   0.000000   0.000000
  139  C 12  Y   -0.003870  -0.003940  -0.049607  -0.020696   0.013452
  140  C 12  Z    0.000796   0.003916   0.001345   0.010256   0.006998
  141  C 12 XX    0.000001  -0.000033   0.000099   0.000119   0.000174
  142  C 12 YY   -0.000056  -0.000043   0.000015   0.000040  -0.000036
  143  C 12 ZZ    0.000055   0.000076  -0.000115  -0.000160  -0.000138
  144  C 12 XY    0.000000   0.000000   0.000000   0.000000   0.000000
  145  C 12 XZ    0.000000   0.000000   0.000000   0.000000   0.000000
  146  C 12 YZ   -0.000013   0.000015  -0.000065  -0.000066  -0.000119
  147  C 12  S   -0.001306  -0.002362   0.002641   0.006477   0.030747
  148  C 12  X    0.000000   0.000000   0.000000   0.000000   0.000000
  149  C 12  Y    0.002019   0.000859  -0.014515  -0.002614   0.009167
  150  C 12  Z   -0.001183  -0.001031   0.002892   0.001784   0.004279
  151  C 12 XX    0.000634   0.000334  -0.000435  -0.000060  -0.000531
  152  C 12 YY   -0.002608  -0.002006   0.000233  -0.002484  -0.001404
  153  C 12 ZZ    0.001973   0.001671   0.000202   0.002544   0.001934
  154  C 12 XY    0.000000   0.000000   0.000000   0.000000   0.000000
  155  C 12 XZ    0.000000   0.000000   0.000000   0.000000   0.000000
  156  C 12 YZ   -0.001040  -0.001009  -0.013547  -0.004817   0.003664
  157  C 13  S   -0.000141   0.000246  -0.708486   0.711439  -0.000515
  158  C 13  S   -0.000186   0.000355  -0.005665   0.005295  -0.000570
  159  C 13  S   -0.003955   0.001856   0.048674  -0.029899   0.006909
  160  C 13  X    0.000000   0.000000   0.000000   0.000000   0.000000
  161  C 13  Y   -0.000221   0.000235  -0.000719   0.000755   0.000130
  162  C 13  Z    0.000067  -0.000070   0.000292  -0.000277   0.000037
  163  C 13  X    0.000000   0.000000   0.000000   0.000000   0.000000
  164  C 13  Y   -0.009625   0.011472  -0.023420   0.017850  -0.001759
  165  C 13  Z    0.004522  -0.003223  -0.013555   0.003490  -0.006888
  166  C 13 XX   -0.000009   0.000027   0.000494  -0.000563  -0.000140
  167  C 13 YY    0.000150  -0.000190  -0.000487   0.000489   0.000128
  168  C 13 ZZ   -0.000141   0.000163  -0.000007   0.000074   0.000012
  169  C 13 XY    0.000000   0.000000   0.000000   0.000000   0.000000
  170  C 13 XZ    0.000000   0.000000   0.000000   0.000000   0.000000
  171  C 13 YZ   -0.000100   0.000120   0.000109  -0.000128  -0.000057
  172  C 13  S   -0.013250   0.013077   0.031923  -0.008397  -0.001660
  173  C 13  X    0.000000   0.000000   0.000000   0.000000   0.000000
  174  C 13  Y   -0.001986   0.003802  -0.005726   0.006087   0.001034
  175  C 13  Z    0.001736  -0.002441  -0.004173   0.000943  -0.003057
  176  C 13 XX    0.001186  -0.000801  -0.002292   0.001823  -0.000750
  177  C 13 YY   -0.001329   0.000531   0.001525  -0.002391   0.000707
  178  C 13 ZZ    0.000143   0.000270   0.000768   0.000567   0.000043
  179  C 13 XY    0.000000   0.000000   0.000000   0.000000   0.000000
  180  C 13 XZ    0.000000   0.000000   0.000000   0.000000   0.000000
  181  C 13 YZ    0.002773  -0.003421   0.007932  -0.005413  -0.000785
  182  C 14  S    0.000170   0.000228   0.711672   0.708252  -0.000515
  183  C 14  S    0.000227   0.000330   0.005689   0.005269  -0.000570
  184  C 14  S    0.004149   0.001366  -0.048808  -0.029680   0.006908
  185  C 14  X    0.000000   0.000000   0.000000   0.000000   0.000000
  186  C 14  Y   -0.000248  -0.000206  -0.000722  -0.000751  -0.000130
  187  C 14  Z   -0.000075  -0.000061  -0.000293  -0.000276   0.000037
  188  C 14  X    0.000000   0.000000   0.000000   0.000000   0.000000
  189  C 14  Y   -0.010936  -0.010230  -0.023500  -0.017745   0.001759
  190  C 14  Z   -0.004878  -0.002655   0.013571   0.003429  -0.006888
  191  C 14 XX    0.000012   0.000026  -0.000497  -0.000561  -0.000140
  192  C 14 YY   -0.000172  -0.000170   0.000490   0.000487   0.000128
  193  C 14 ZZ    0.000160   0.000145   0.000007   0.000074   0.000012
  194  C 14 XY    0.000000   0.000000   0.000000   0.000000   0.000000
  195  C 14 XZ    0.000000   0.000000   0.000000   0.000000   0.000000
  196  C 14 YZ   -0.000114  -0.000108   0.000110   0.000128   0.000057
  197  C 14  S    0.014728   0.011387  -0.031960  -0.008253  -0.001660
  198  C 14  X    0.000000   0.000000   0.000000   0.000000   0.000000
  199  C 14  Y   -0.002429  -0.003535  -0.005754  -0.006061  -0.001034
  200  C 14  Z   -0.002017  -0.002215   0.004177   0.000925  -0.003057
  201  C 14 XX   -0.001274  -0.000652   0.002301   0.001813  -0.000750
  202  C 14 YY    0.001383   0.000367  -0.001535  -0.002384   0.000707
  203  C 14 ZZ   -0.000109   0.000285  -0.000765   0.000571   0.000043
  204  C 14 XY    0.000000   0.000000   0.000000   0.000000   0.000000
  205  C 14 XZ    0.000000   0.000000   0.000000   0.000000   0.000000
  206  C 14 YZ    0.003165   0.003063   0.007957   0.005378   0.000785
  207  N 15  S   -0.665103   0.750587  -0.000068   0.000127   0.000055
  208  N 15  S   -0.003470   0.003859  -0.000523   0.000624   0.000086
  209  N 15  S    0.015659  -0.016908   0.004796  -0.005261  -0.002222
  210  N 15  X    0.000000   0.000000   0.000000   0.000000   0.000000
  211  N 15  Y    0.000245  -0.000268   0.000209  -0.000222   0.000020
  212  N 15  Z   -0.000084   0.000089  -0.000078   0.000076  -0.000016
  213  N 15  X    0.000000   0.000000   0.000000   0.000000   0.000000
  214  N 15  Y   -0.003987   0.003933  -0.001766   0.002614   0.001213
  215  N 15  Z    0.001089  -0.000871   0.000801  -0.000698   0.000077
  216  N 15 XX    0.000171  -0.000203  -0.000213   0.000218   0.000045
  217  N 15 YY   -0.000079   0.000106   0.000098  -0.000098  -0.000025
  218  N 15 ZZ   -0.000092   0.000097   0.000115  -0.000120  -0.000020
  219  N 15 XY    0.000000   0.000000   0.000000   0.000000   0.000000
  220  N 15 XZ    0.000000   0.000000   0.000000   0.000000   0.000000
  221  N 15 YZ   -0.000008   0.000006  -0.000034   0.000049   0.000036
  222  N 15  S    0.012330  -0.015720  -0.000183  -0.006092  -0.000038
  223  N 15  X    0.000000   0.000000   0.000000   0.000000   0.000000
  224  N 15  Y   -0.002122   0.002460  -0.000259   0.000894   0.000084
  225  N 15  Z    0.000941  -0.000865  -0.000039  -0.001360   0.000184
  226  N 15 XX   -0.000462   0.000504   0.000298  -0.000081  -0.000068
  227  N 15 YY    0.000653  -0.000725   0.000312  -0.000732  -0.000236
  228  N 15 ZZ   -0.000191   0.000221  -0.000610   0.000813   0.000304
  229  N 15 XY    0.000000   0.000000   0.000000   0.000000   0.000000
  230  N 15 XZ    0.000000   0.000000   0.000000   0.000000   0.000000
  231  N 15 YZ   -0.000271   0.000275  -0.000785   0.000649  -0.000238
  232  N 16  S    0.750616   0.665070   0.000068   0.000126   0.000055
  233  N 16  S    0.003909   0.003413   0.000526   0.000622   0.000086
  234  N 16  S   -0.017580  -0.014900  -0.004820  -0.005239  -0.002222
  235  N 16  X    0.000000   0.000000   0.000000   0.000000   0.000000
  236  N 16  Y    0.000275   0.000236   0.000210   0.000221  -0.000020
  237  N 16  Z    0.000094   0.000078   0.000078   0.000076  -0.000016
  238  N 16  X    0.000000   0.000000   0.000000   0.000000   0.000000
  239  N 16  Y   -0.004431  -0.003425  -0.001778  -0.002606  -0.001213
  240  N 16  Z   -0.001185  -0.000733  -0.000804  -0.000694   0.000077
  241  N 16 XX   -0.000194  -0.000181   0.000214   0.000217   0.000045
  242  N 16 YY    0.000091   0.000096  -0.000099  -0.000097  -0.000025
  243  N 16 ZZ    0.000103   0.000085  -0.000115  -0.000119  -0.000020
  244  N 16 XY    0.000000   0.000000   0.000000   0.000000   0.000000
  245  N 16 XZ    0.000000   0.000000   0.000000   0.000000   0.000000
  246  N 16 YZ   -0.000009  -0.000005  -0.000034  -0.000049  -0.000036
  247  N 16  S   -0.014133  -0.014122   0.000156  -0.006093  -0.000038
  248  N 16  X    0.000000   0.000000   0.000000   0.000000   0.000000
  249  N 16  Y   -0.002403  -0.002187  -0.000263  -0.000892  -0.000084
  250  N 16  Z   -0.001038  -0.000745   0.000032  -0.001360   0.000184
  251  N 16 XX    0.000519   0.000445  -0.000299  -0.000080  -0.000068
  252  N 16 YY   -0.000735  -0.000641  -0.000315  -0.000730  -0.000236
  253  N 16 ZZ    0.000216   0.000196   0.000614   0.000810   0.000304
  254  N 16 XY    0.000000   0.000000   0.000000   0.000000   0.000000
  255  N 16 XZ    0.000000   0.000000   0.000000   0.000000   0.000000
  256  N 16 YZ   -0.000302  -0.000240  -0.000788  -0.000645   0.000238

                      6          7          8          9         10

                  -11.3954   -11.3953    -1.4235    -1.4225    -1.2680

    1  H  1  S    0.000000  -0.000123   0.012705   0.000000   0.101459
    2  H  1  S    0.000000  -0.001151   0.022897   0.000000   0.143926
    3  H  1  X    0.000000   0.000000   0.000000   0.000000   0.000000
    4  H  1  Y    0.000043   0.000000   0.000000  -0.000135   0.000000
    5  H  1  Z    0.000000  -0.000144  -0.002585   0.000000  -0.014208
    6  H  1  S    0.000000   0.001498   0.023602   0.000000  -0.007682
    7  H  1  X    0.000000   0.000000   0.000000   0.000000   0.000000
    8  H  1  Y    0.002097   0.000000   0.000000   0.002765   0.000000
    9  H  1  Z    0.000000  -0.000205  -0.005795   0.000000  -0.029513
   10  H  2  S    0.000275   0.000243   0.019470   0.016393   0.071480
   11  H  2  S   -0.001693   0.006538   0.023739   0.050506   0.052502
   12  H  2  X    0.000000   0.000000   0.000000   0.000000   0.000000
   13  H  2  Y   -0.000049   0.000062  -0.000355  -0.000192  -0.001091
   14  H  2  Z   -0.000057  -0.000107   0.003674   0.002756   0.011121
   15  H  2  S   -0.005571  -0.001704   0.005278   0.001745  -0.005340
   16  H  2  X    0.000000   0.000000   0.000000   0.000000   0.000000
   17  H  2  Y    0.001514   0.000148  -0.006815  -0.005902   0.005825
   18  H  2  Z   -0.000084   0.002195   0.005750   0.012955   0.005810
   19  H  3  S   -0.000275   0.000243   0.019470  -0.016393   0.071480
   20  H  3  S    0.001693   0.006538   0.023740  -0.050506   0.052502
   21  H  3  X    0.000000   0.000000   0.000000   0.000000   0.000000
   22  H  3  Y   -0.000049  -0.000062   0.000355  -0.000192   0.001091
   23  H  3  Z    0.000057  -0.000107   0.003674  -0.002756   0.011121
   24  H  3  S    0.005571  -0.001704   0.005278  -0.001745  -0.005340
   25  H  3  X    0.000000   0.000000   0.000000   0.000000   0.000000
   26  H  3  Y    0.001514  -0.000148   0.006815  -0.005902  -0.005825
   27  H  3  Z    0.000084   0.002195   0.005750  -0.012955   0.005810
   28  H  4  S   -0.000097  -0.000047   0.043599   0.042903   0.031087
   29  H  4  S   -0.001072   0.000360   0.043313   0.025969  -0.026356
   30  H  4  X    0.000000   0.000000   0.000000   0.000000   0.000000
   31  H  4  Y    0.000046   0.000063   0.001243   0.001446  -0.001591
   32  H  4  Z   -0.000054  -0.000049  -0.007920  -0.007944  -0.004410
   33  H  4  S    0.001666   0.001801  -0.009939  -0.001279   0.018868
   34  H  4  X    0.000000   0.000000   0.000000   0.000000   0.000000
   35  H  4  Y    0.000782   0.000553  -0.016722  -0.013045   0.007693
   36  H  4  Z    0.000043  -0.000476  -0.012600  -0.007514   0.016136
   37  H  5  S    0.000097  -0.000047   0.043600  -0.042902   0.031087
   38  H  5  S    0.001072   0.000360   0.043313  -0.025969  -0.026356
   39  H  5  X    0.000000   0.000000   0.000000   0.000000   0.000000
   40  H  5  Y    0.000046  -0.000063  -0.001243   0.001446   0.001591
   41  H  5  Z    0.000054  -0.000049  -0.007920   0.007944  -0.004410
   42  H  5  S   -0.001666   0.001801  -0.009939   0.001279   0.018868
   43  H  5  X    0.000000   0.000000   0.000000   0.000000   0.000000
   44  H  5  Y    0.000782  -0.000553   0.016722  -0.013045  -0.007693
   45  H  5  Z   -0.000043  -0.000476  -0.012600   0.007514   0.016136
   46  H  6  S   -0.000055  -0.000097   0.105328   0.106742  -0.044295
   47  H  6  S    0.001667   0.000419   0.044259   0.054098   0.008794
   48  H  6  X    0.000000   0.000000   0.000000   0.000000   0.000000
   49  H  6  Y    0.000065   0.000060  -0.004700  -0.004700   0.001976
   50  H  6  Z    0.000051   0.000069   0.017924   0.018171  -0.007440
   51  H  6  S    0.000141  -0.000323  -0.002228  -0.001403   0.002471
   52  H  6  X    0.000000   0.000000   0.000000   0.000000   0.000000
   53  H  6  Y   -0.000157  -0.000207  -0.004184  -0.005772   0.001844
   54  H  6  Z    0.000407   0.000063   0.013265   0.015876   0.001800
   55  H  7  S    0.000055  -0.000097   0.105329  -0.106741  -0.044295
   56  H  7  S   -0.001667   0.000419   0.044259  -0.054097   0.008794
   57  H  7  X    0.000000   0.000000   0.000000   0.000000   0.000000
   58  H  7  Y    0.000065  -0.000060   0.004700  -0.004700  -0.001976
   59  H  7  Z   -0.000051   0.000069   0.017924  -0.018171  -0.007440
   60  H  7  S   -0.000141  -0.000323  -0.002228   0.001403   0.002471
   61  H  7  X    0.000000   0.000000   0.000000   0.000000   0.000000
   62  H  7  Y   -0.000157   0.000207   0.004184  -0.005772  -0.001844
   63  H  7  Z   -0.000407   0.000063   0.013265  -0.015876   0.001800
   64  H  8  S   -0.000167  -0.000171   0.104899   0.106429  -0.054191
[...]
   16             0.127450   0.027181
 WARNING! MCSCF POPULATIONS SHOWN ABOVE ARE FOR THE NATURAL ORBITALS.
 IGNORE THE ABOVE DATA FOR MCSCF FUNCTIONS WHICH ARE NOT OF -FORS- TYPE.
 THE FOLLOWING POPULATIONS ARE CORRECT FOR ANY MCSCF WAVEFUNCTION.

               ----- POPULATIONS IN EACH AO -----
                             MULLIKEN      LOWDIN
              1  H  1  S      0.77544     0.52173
              2  H  1  S      0.72928     0.14563
              3  H  1  X      0.00495     0.01144
              4  H  1  Y      0.00350     0.01109
              5  H  1  Z      0.02102     0.04026
              6  H  1  S      0.02141     0.02048
              7  H  1  X      0.00291     0.04845
              8  H  1  Y     -0.07236     0.04702
              9  H  1  Z      0.02717     0.07161
             10  H  2  S      0.77151     0.51868
             11  H  2  S      0.75435     0.15299
             12  H  2  X      0.00654     0.01482
             13  H  2  Y      0.00357     0.01108
             14  H  2  Z      0.02092     0.04009
             15  H  2  S      0.00660     0.01981
             16  H  2  X      0.00131     0.05934
             17  H  2  Y     -0.02842     0.03774
             18  H  2  Z      0.01146     0.06803
             19  H  3  S      0.77151     0.51868
             20  H  3  S      0.75435     0.15299
             21  H  3  X      0.00654     0.01482
             22  H  3  Y      0.00357     0.01108
             23  H  3  Z      0.02092     0.04009
             24  H  3  S      0.00660     0.01981
             25  H  3  X      0.00131     0.05934
             26  H  3  Y     -0.02842     0.03774
             27  H  3  Z      0.01146     0.06803
             28  H  4  S      0.76812     0.52342
             29  H  4  S      0.58670     0.14685
             30  H  4  X      0.00422     0.01004
             31  H  4  Y      0.00290     0.00934
             32  H  4  Z      0.02252     0.04226
             33  H  4  S      0.00493     0.01839
             34  H  4  X     -0.00579     0.04616
             35  H  4  Y     -0.00988     0.03834
             36  H  4  Z      0.00683     0.06729
             37  H  5  S      0.76812     0.52342
             38  H  5  S      0.58670     0.14685
             39  H  5  X      0.00422     0.01004
             40  H  5  Y      0.00290     0.00934
             41  H  5  Z      0.02252     0.04226
             42  H  5  S      0.00493     0.01839
             43  H  5  X     -0.00579     0.04616
             44  H  5  Y     -0.00988     0.03834
             45  H  5  Z      0.00683     0.06729
             46  H  6  S      0.74285     0.47584
             47  H  6  S      0.24977     0.11456
             48  H  6  X      0.01382     0.03399
             49  H  6  Y      0.00572     0.02062
             50  H  6  Z      0.03609     0.06160
             51  H  6  S     -0.01288     0.01504
             52  H  6  X      0.00827     0.07262
             53  H  6  Y     -0.01826     0.04336
             54  H  6  Z     -0.00733     0.07563
             55  H  7  S      0.74285     0.47584
             56  H  7  S      0.24977     0.11456
             57  H  7  X      0.01382     0.03399
             58  H  7  Y      0.00572     0.02062
             59  H  7  Z      0.03609     0.06160
             60  H  7  S     -0.01288     0.01504
             61  H  7  X      0.00827     0.07262
             62  H  7  Y     -0.01826     0.04336
             63  H  7  Z     -0.00733     0.07563
             64  H  8  S      0.74319     0.47226
             65  H  8  S      0.18972     0.11554
             66  H  8  X      0.01455     0.03499
             67  H  8  Y      0.02541     0.04647
             68  H  8  Z      0.01649     0.03522
             69  H  8  S     -0.00706     0.01403
             70  H  8  X      0.01087     0.07642
             71  H  8  Y     -0.01758     0.05836
             72  H  8  Z     -0.03006     0.05571
             73  H  9  S      0.74319     0.47226
             74  H  9  S      0.18972     0.11554
             75  H  9  X      0.01455     0.03499
             76  H  9  Y      0.02541     0.04647
             77  H  9  Z      0.01649     0.03522
             78  H  9  S     -0.00706     0.01403
             79  H  9  X      0.01087     0.07642
             80  H  9  Y     -0.01758     0.05836
             81  H  9  Z     -0.03006     0.05571
             82  C 10  S      2.00839     1.80640
             83  C 10  S      0.66868     0.44465
             84  C 10  S      0.49674     0.17263
             85  C 10  X      0.46588     0.38465
             86  C 10  Y      0.77953     0.65115
             87  C 10  Z      0.73529     0.61819
             88  C 10  X      0.34331     0.24252
             89  C 10  Y     -0.33584     0.22190
             90  C 10  Z      0.28293     0.27872
             91  C 10 XX      0.02533     0.05518
             92  C 10 YY      0.01452     0.16964
             93  C 10 ZZ      0.02498     0.14488
             94  C 10 XY      0.00402     0.03909
             95  C 10 XZ      0.02426     0.00621
             96  C 10 YZ      0.00000     0.05006
             97  C 10  S     -0.20194     0.04371
             98  C 10  X     -0.02530     0.02839
             99  C 10  Y      0.15557     0.04604
            100  C 10  Z      0.14132     0.03144
            101  C 10 XX     -0.08647     0.00661
            102  C 10 YY      0.02902     0.14583
            103  C 10 ZZ      0.02030     0.11851
            104  C 10 XY     -0.00023     0.15959
            105  C 10 XZ      0.19012     0.02019
            106  C 10 YZ      0.00000     0.14803
            107  C 11  S      2.00861     1.80489
            108  C 11  S      0.64993     0.43402
            109  C 11  S      0.15527     0.17435
            110  C 11  X      0.59219     0.48941
            111  C 11  Y      0.74172     0.62590
            112  C 11  Z      0.72351     0.60961
            113  C 11  X      0.45247     0.28169
            114  C 11  Y     -0.09880     0.22312
            115  C 11  Z      0.14720     0.28282
            116  C 11 XX      0.02318     0.05460
            117  C 11 YY      0.01209     0.16292
            118  C 11 ZZ      0.01215     0.14679
            119  C 11 XY      0.00547     0.02110
            120  C 11 XZ      0.02610     0.00687
            121  C 11 YZ      0.00000     0.05549
            122  C 11  S     -0.38756     0.04372
            123  C 11  X      0.01811     0.02903
            124  C 11  Y      0.12461     0.04044
            125  C 11  Z      0.12644     0.03122
            126  C 11 XX     -0.12283     0.00686
            127  C 11 YY      0.00109     0.12484
            128  C 11 ZZ      0.02137     0.12507
            129  C 11 XY     -0.00009     0.09471
            130  C 11 XZ     -0.12603     0.01880
            131  C 11 YZ      0.00000     0.13779
            132  C 12  S      2.00861     1.80489
            133  C 12  S      0.64993     0.43402
            134  C 12  S      0.15527     0.17435
            135  C 12  X      0.59219     0.48941
            136  C 12  Y      0.74172     0.62590
            137  C 12  Z      0.72351     0.60961
            138  C 12  X      0.45247     0.28169
            139  C 12  Y     -0.09880     0.22312
            140  C 12  Z      0.14720     0.28282
            141  C 12 XX      0.02318     0.05460
            142  C 12 YY      0.01209     0.16292
            143  C 12 ZZ      0.01215     0.14679
            144  C 12 XY      0.00547     0.02110
            145  C 12 XZ      0.02610     0.00687
            146  C 12 YZ      0.00000     0.05549
            147  C 12  S     -0.38756     0.04372
            148  C 12  X      0.01811     0.02903
            149  C 12  Y      0.12461     0.04044
            150  C 12  Z      0.12644     0.03122
            151  C 12 XX     -0.12283     0.00686
            152  C 12 YY      0.00109     0.12484
            153  C 12 ZZ      0.02137     0.12507
            154  C 12 XY     -0.00009     0.09471
            155  C 12 XZ     -0.12603     0.01880
            156  C 12 YZ      0.00000     0.13779
            157  C 13  S      2.00810     1.79251
            158  C 13  S      0.67721     0.44834
            159  C 13  S      0.60149     0.17041
            160  C 13  X      0.43223     0.35141
            161  C 13  Y      0.75018     0.62907
            162  C 13  Z      0.76335     0.63358
            163  C 13  X      0.23925     0.22485
            164  C 13  Y     -0.06670     0.20366
            165  C 13  Z     -0.16346     0.26893
            166  C 13 XX      0.02898     0.05216
            167  C 13 YY      0.02115     0.17965
            168  C 13 ZZ      0.03963     0.15254
            169  C 13 XY      0.00565     0.06808
            170  C 13 XZ      0.03160     0.00819
            171  C 13 YZ      0.00000     0.06427
            172  C 13  S     -0.18677     0.04202
            173  C 13  X      0.02164     0.02473
            174  C 13  Y      0.01376     0.03618
            175  C 13  Z      0.05434     0.02662
            176  C 13 XX     -0.10560     0.00621
            177  C 13 YY     -0.00467     0.15152
            178  C 13 ZZ      0.01409     0.12108
            179  C 13 XY     -0.01175     0.17864
            180  C 13 XZ     -0.06497     0.02019
            181  C 13 YZ      0.00000     0.14382
            182  C 14  S      2.00810     1.79251
            183  C 14  S      0.67721     0.44834
            184  C 14  S      0.60149     0.17041
            185  C 14  X      0.43223     0.35141
            186  C 14  Y      0.75018     0.62907
            187  C 14  Z      0.76335     0.63358
            188  C 14  X      0.23925     0.22485
            189  C 14  Y     -0.06670     0.20366
            190  C 14  Z     -0.16346     0.26893
            191  C 14 XX      0.02898     0.05216
            192  C 14 YY      0.02115     0.17965
            193  C 14 ZZ      0.03963     0.15254
            194  C 14 XY      0.00565     0.06808
            195  C 14 XZ      0.03160     0.00819
            196  C 14 YZ      0.00000     0.06427
            197  C 14  S     -0.18677     0.04202
            198  C 14  X      0.02164     0.02473
            199  C 14  Y      0.01376     0.03618
            200  C 14  Z      0.05434     0.02662
            201  C 14 XX     -0.10560     0.00621
            202  C 14 YY     -0.00467     0.15152
            203  C 14 ZZ      0.01409     0.12108
            204  C 14 XY     -0.01175     0.17864
            205  C 14 XZ     -0.06497     0.02019
            206  C 14 YZ      0.00000     0.14382
            207  N 15  S      2.00568     1.84241
            208  N 15  S      0.71505     0.48524
            209  N 15  S      0.78120     0.24121
            210  N 15  X      0.89473     0.81190
            211  N 15  Y      0.77591     0.67245
            212  N 15  Z      0.77470     0.66909
            213  N 15  X      0.72905     0.45619
            214  N 15  Y      0.28287     0.36188
            215  N 15  Z      0.29999     0.38884
            216  N 15 XX      0.00876     0.08636
            217  N 15 YY      0.00539     0.15209
            218  N 15 ZZ      0.00393     0.14215
            219  N 15 XY      0.00056     0.00529
            220  N 15 XZ      0.01185     0.00081
            221  N 15 YZ      0.00000     0.02241
            222  N 15  S     -0.07745     0.05020
            223  N 15  X      0.03776     0.03825
            224  N 15  Y      0.02927     0.04549
            225  N 15  Z      0.00125     0.03941
            226  N 15 XX     -0.01577     0.01043
            227  N 15 YY      0.00191     0.09923
            228  N 15 ZZ      0.01563     0.07244
            229  N 15 XY      0.00173     0.04512
            230  N 15 XZ     -0.01772     0.00610
            231  N 15 YZ      0.00000     0.10741
            232  N 16  S      2.00568     1.84241
            233  N 16  S      0.71505     0.48524
            234  N 16  S      0.78120     0.24121
            235  N 16  X      0.89473     0.81190
            236  N 16  Y      0.77591     0.67245
            237  N 16  Z      0.77470     0.66909
            238  N 16  X      0.72905     0.45619
            239  N 16  Y      0.28287     0.36188
            240  N 16  Z      0.29999     0.38884
            241  N 16 XX      0.00876     0.08636
            242  N 16 YY      0.00539     0.15209
            243  N 16 ZZ      0.00393     0.14215
            244  N 16 XY      0.00056     0.00529
            245  N 16 XZ      0.01185     0.00081
            246  N 16 YZ      0.00000     0.02241
            247  N 16  S     -0.07745     0.05020
            248  N 16  X      0.03776     0.03825
            249  N 16  Y      0.02927     0.04549
            250  N 16  Z      0.00125     0.03941
            251  N 16 XX     -0.01577     0.01043
            252  N 16 YY      0.00191     0.09923
            253  N 16 ZZ      0.01563     0.07244
            254  N 16 XY      0.00173     0.04512
            255  N 16 XZ     -0.01772     0.00610
            256  N 16 YZ      0.00000     0.10741

          ----- MULLIKEN ATOMIC OVERLAP POPULATIONS -----
          (OFF-DIAGONAL ELEMENTS NEED TO BE MULTIPLIED BY 2)

             1           2           3           4           5

    1    1.8266116
    2    0.0638146   1.8105226
    3    0.0638145  -0.0772677   1.8105237
    4   -0.0650219   0.0429916  -0.0021692   1.3334927
    5   -0.0650219  -0.0021692   0.0429916   0.0065265   1.3334930
    6   -0.0012771   0.0249280  -0.0001888   0.0154289   0.0000098
    7   -0.0012771  -0.0001888   0.0249280   0.0000098   0.0154288
    8   -0.0000687  -0.0054613   0.0003529  -0.0277498  -0.0001472
    9   -0.0000687   0.0003529  -0.0054612  -0.0001472  -0.0277498
   10   -0.0820221   0.6012142   0.6012144  -0.1011019  -0.1011023
   11   -0.1052998  -0.6599674   0.0652472   0.1893959   0.0474859
   12   -0.1052993   0.0652473  -0.6599686   0.0474859   0.1893962
   13   -0.0309629  -0.3359651   0.0456230  -0.0689512   0.0130333
   14   -0.0309621   0.0456228  -0.3359643   0.0130333  -0.0689515
   15    0.0231826  -0.0311748   0.0053332  -0.0011877  -0.0015088
   16    0.0231826   0.0053333  -0.0311751  -0.0015088  -0.0011876

             6           7           8           9          10

    6    0.8224507
    7   -0.0000073   0.8224504
    8   -0.1774980   0.0000011   0.8080879
    9    0.0000011  -0.1774980   0.0000065   0.8080879
   10   -0.0410231  -0.0410230  -0.0049232  -0.0049233   9.0087613
   11    0.1609309   0.0041340  -0.0264991  -0.0047544  -1.9249626
   12    0.0041340   0.1609310  -0.0047544  -0.0264989  -1.9249650
   13   -0.2123316  -0.0003242  -0.0636726  -0.0002548  -0.0535909
   14   -0.0003242  -0.2123320  -0.0002548  -0.0636725  -0.0535897
   15    0.4229807  -0.0001689   0.4480531   0.0000656  -0.0587753
   16   -0.0001689   0.4229811   0.0000656   0.4480528  -0.0587759

            11          12          13          14          15

   11    9.2746044
   12   -0.7785472   9.2746084
   13   -0.8699281  -0.1166798   6.4984455
   14   -0.1166796  -0.8699293  -0.0178003   6.4984436
   15   -0.1325288  -0.0164395   0.3048573   0.0072059   6.2969969
   16   -0.0164396  -0.1325284   0.0072059   0.3048573  -0.0005980

            16

   16    6.2969976

          TOTAL MULLIKEN AND LOWDIN ATOMIC POPULATIONS
       ATOM         MULL.POP.    CHARGE          LOW.POP.     CHARGE
    1 H             1.513324   -0.513324         0.917714    0.082286
    2 H             1.547833   -0.547833         0.922575    0.077425
    3 H             1.547834   -0.547834         0.922575    0.077425
    4 H             1.380527   -0.380527         0.902081    0.097919
    5 H             1.380527   -0.380527         0.902081    0.097919
    6 H             1.018045   -0.018045         0.913249    0.086751
    7 H             1.018045   -0.018045         0.913249    0.086751
    8 H             0.945538    0.054462         0.908998    0.091002
    9 H             0.945538    0.054462         0.908998    0.091002
   10 C             5.760412    0.239588         6.034200   -0.034200
   11 C             5.106192    0.893808         6.026073   -0.026073
   12 C             5.106192    0.893808         6.026073   -0.026073
   13 C             5.098704    0.901296         5.998655    0.001345
   14 C             5.098703    0.901297         5.998656    0.001344
   15 N             7.266294   -0.266294         6.852412    0.147588
   16 N             7.266294   -0.266294         6.852412    0.147588

          MULLIKEN SPHERICAL HARMONIC POPULATIONS
       ATOM           S       P       D      F      G      H      I    TOTAL
    1 H             1.53   -0.01    0.00   0.00   0.00   0.00   0.00    1.51
    2 H             1.53    0.02    0.00   0.00   0.00   0.00   0.00    1.55
    3 H             1.53    0.02    0.00   0.00   0.00   0.00   0.00    1.55
    4 H             1.36    0.02    0.00   0.00   0.00   0.00   0.00    1.38
    5 H             1.36    0.02    0.00   0.00   0.00   0.00   0.00    1.38
    6 H             0.98    0.04    0.00   0.00   0.00   0.00   0.00    1.02
    7 H             0.98    0.04    0.00   0.00   0.00   0.00   0.00    1.02
    8 H             0.93    0.02    0.00   0.00   0.00   0.00   0.00    0.95
    9 H             0.93    0.02    0.00   0.00   0.00   0.00   0.00    0.95
   10 C             2.97    2.54    0.25   0.00   0.00   0.00   0.00    5.76
   11 C             2.43    2.83   -0.15   0.00   0.00   0.00   0.00    5.11
   12 C             2.43    2.83   -0.15   0.00   0.00   0.00   0.00    5.11
   13 C             3.10    2.04   -0.05   0.00   0.00   0.00   0.00    5.10
   14 C             3.10    2.04   -0.05   0.00   0.00   0.00   0.00    5.10
   15 N             3.42    3.83    0.02   0.00   0.00   0.00   0.00    7.27
   16 N             3.42    3.83    0.02   0.00   0.00   0.00   0.00    7.27

          ---------------------
          ELECTROSTATIC MOMENTS
          ---------------------

 POINT   1           X           Y           Z (BOHR)    CHARGE
                 0.000000    0.000000   -0.002041        1.00 (A.U.)
         DX          DY          DZ         /D/  (DEBYE)
     0.000000    0.000000    0.418801    0.418801
 ...... END OF PROPERTY EVALUATION ......
 STEP CPU TIME =     0.10 TOTAL CPU TIME =      103.3 (    1.7 MIN)
 TOTAL WALL CLOCK TIME=      102.0 SECONDS, CPU UTILIZATION IS 101.26%
                650694  WORDS OF DYNAMIC MEMORY USED
 EXECUTION OF GAMESS TERMINATED NORMALLY Tue Sep 19 11:52:27 2017
 DDI: 1128 bytes (0.0 MB / 0 MWords) used by master data server.

 ----------------------------------------
 CPU timing information for all processes
 ========================================
 0: 89.529595 + 13.776861 = 103.306456
 ----------------------------------------
 ddikick.x: exited gracefully.
----- accounting info -----
Tue Sep 19 11:52:30 CEST 2017
Files used on the master node lpqlx139 were:
-rw-r--r-- 1 scemama scemama    1119868 Sep 19 11:52 /dev/shm//gamess/C5.dat
-rw-r--r-- 1 scemama scemama    1007711 Sep 19 11:50 /dev/shm//gamess/C5.F05
-rw-r--r-- 1 scemama scemama 3347503152 Sep 19 11:51 /dev/shm//gamess/C5.F08
-rw-r--r-- 1 scemama scemama     503192 Sep 19 11:52 /dev/shm//gamess/C5.F09
-rw-r--r-- 1 scemama scemama   30625920 Sep 19 11:52 /dev/shm//gamess/C5.F10
-rw-r--r-- 1 scemama scemama     268000 Sep 19 11:51 /dev/shm//gamess/C5.F11
-rw-r--r-- 1 scemama scemama        248 Sep 19 11:52 /dev/shm//gamess/C5.F12
-rw-r--r-- 1 scemama scemama     650392 Sep 19 11:52 /dev/shm//gamess/C5.F13
-rw-r--r-- 1 scemama scemama    4800008 Sep 19 11:52 /dev/shm//gamess/C5.F14
-rw-r--r-- 1 scemama scemama     243048 Sep 19 11:52 /dev/shm//gamess/C5.F15
-rw-r--r-- 1 scemama scemama     243048 Sep 19 11:52 /dev/shm//gamess/C5.F16
-rw-r--r-- 1 scemama scemama    1264896 Sep 19 11:52 /dev/shm//gamess/C5.F23
0.088u 0.196s 1:46.87 0.2%	0+0k 0+8io 0pf+0w
