----- GAMESS execution script -----
This job is running on host lpqlx139
under operating system Linux at Tue Sep 19 11:56:56 CEST 2017
Available scratch disk space (Kbyte units) at beginning of the job is
Filesystem     1K-blocks  Used Available Use% Mounted on
shmfs           20971520     0  20971520   0% /run/shm

 Distributed Data Interface kickoff program.
 Initiating 1 compute processes on 1 nodes to run the following command:
 /usr/local/gamess/gamess.01.x C7 

          ******************************************************
          *         GAMESS VERSION = 22 FEB 2006 (R5)          *
          *             FROM IOWA STATE UNIVERSITY             *
          * M.W.SCHMIDT, K.K.BALDRIDGE, J.A.BOATZ, S.T.ELBERT, *
          *   M.S.GORDON, J.H.JENSEN, S.KOSEKI, N.MATSUNAGA,   *
          *          K.A.NGUYEN, S.J.SU, T.L.WINDUS,           *
          *       TOGETHER WITH M.DUPUIS, J.A.MONTGOMERY       *
          *         J.COMPUT.CHEM.  14, 1347-1363(1993)        *
          ***************** AMD 64 BIT VERSION *****************

     SINCE 1993, STUDENTS AND POSTDOCS WORKING AT IOWA STATE UNIVERSITY
     AND ALSO IN THEIR VARIOUS JOBS AFTER LEAVING ISU HAVE MADE IMPORTANT
     CONTRIBUTIONS TO THE CODE:
     IVANA ADAMOVIC, CHRISTINE AIKENS, YURI ALEXEEV, POOJA ARORA, ROB BELL,
     PRADIPTA BANDYOPADHYAY, BRETT BODE, GALINA CHABAN, WEI CHEN,
     CHEOL HO CHOI, PAUL DAY, TIM DUDLEY, DMITRI FEDOROV, GRAHAM FLETCHER,
     MARK FREITAG, KURT GLAESEMANN, GRANT MERRILL, TAKESHI NAGATA,
     HEATHER NETZLOFF, BOSILJKA NJEGIC, RYAN OLSON, MIKE PAK, JIM SHOEMAKER,
     LYUDMILA SLIPCHENKO, JIE SONG, TETSUYA TAKETSUGU, SIMON WEBB.

     ADDITIONAL CODE HAS BEEN PROVIDED BY COLLABORATORS IN OTHER GROUPS:
     IOWA STATE UNIVERSITY: JOE IVANIC, KLAUS RUEDENBERG
     UNIVERSITY OF TOKYO: KIMIHIKO HIRAO, HARUYUKI NAKANO, TAKAHITO
          NAKAJIMA, TAKAO TSUNEDA, MUNEAKI KAMIYA, SUSUMU YANAGISAWA,
          KIYOSHI YAGI
     UNIVERSITY OF SOUTHERN DENMARK: FRANK JENSEN
     UNIVERSITY OF IOWA: VISVALDAS KAIRYS, HUI LI
     NATIONAL INST. OF STANDARDS AND TECHNOLOGY: WALT STEVENS, DAVID GARMER
     UNIVERSITY OF PISA: BENEDETTA MENNUCCI, JACOPO TOMASI
     UNIVERSITY OF MEMPHIS: HENRY KURTZ, PRAKASHAN KORAMBATH
     UNIVERSITY OF ALBERTA: MARIUSZ KLOBUKOWSKI
     UNIVERSITY OF NEW ENGLAND: MARK SPACKMAN
     MIE UNIVERSITY: HIROAKI UMEDA
     MICHIGAN STATE UNIVERSITY:
          KAROL KOWALSKI, MARTA WLOCH, PIOTR PIECUCH
     UNIVERSITY OF SILESIA: MONIKA MUSIAL, STANISLAW KUCHARSKI
     FACULTES UNIVERSITAIRES NOTRE-DAME DE LA PAIX:
          OLIVIER QUINET, BENOIT CHAMPAGNE
     UNIVERSITY OF CALIFORNIA - SANTA BARBARA: BERNARD KIRTMAN
     INSTITUTE FOR MOLECULAR SCIENCE: KAZUYA ISHIMURA AND SHIGERU NAGASE
     UNIVERSITY OF NOTRE DAME: DAN CHIPMAN
     KYUSHU UNIVERSITY:
          FENG LONG GU, JACEK KORCHOWIEC, MARCIN MAKOWSKI, AND YURIKO AOKI
     PENNSYLVANIA STATE UNIVERSITY:
          TZVETELIN IORDANOV, CHET SWALINA, SHARON HAMMES-SCHIFFER

 EXECUTION OF GAMESS BEGUN Tue Sep 19 11:56:56 2017

            ECHO OF THE FIRST FEW INPUT CARDS -
 INPUT CARD> $CONTRL                                                                        
 INPUT CARD>   EXETYP=RUN COORD=UNIQUE  UNITS=ANGS                                          
 INPUT CARD>   RUNTYP=ENERGY SCFTYP=MCSCF CITYP=NONE                                        
 INPUT CARD>   MAXIT=100                                                                    
 INPUT CARD>   ISPHER=1                                                                     
 INPUT CARD>   MULT=1                                                                       
 INPUT CARD>   ICHARG=1                                                                     
 INPUT CARD>   MPLEVL=0                                                                     
 INPUT CARD> $END                                                                           
 INPUT CARD>                                                                                
 INPUT CARD> $GUESS                                                                         
 INPUT CARD>  GUESS=MOREAD                                                                  
 INPUT CARD>  NORB=306                                                                      
 INPUT CARD> $END                                                                           
 INPUT CARD>                                                                                
 INPUT CARD> $SCF                                                                           
 INPUT CARD>  DIRSCF=.T.                                                                    
 INPUT CARD> $END                                                                           
 INPUT CARD>                                                                                
 INPUT CARD> $MCSCF                                                                         
 INPUT CARD>   FOCAS=.F.    SOSCF=.T.   FULLNR=.F.                                          
 INPUT CARD>   CISTEP=GUGA EKT=.F. QUAD=.F. JACOBI=.f.                                      
 INPUT CARD>   MAXIT=1000                                                                   
 INPUT CARD> $END                                                                           
 INPUT CARD>                                                                                
 INPUT CARD> $GUGDIA                                                                        
 INPUT CARD>  NSTATE=2                                                                      
 INPUT CARD> $END                                                                           
 INPUT CARD>                                                                                
 INPUT CARD> $GUGDM2                                                                        
 INPUT CARD>  WSTATE(1)=0.5,0.5                                                             
 INPUT CARD> $END                                                                           
 INPUT CARD>                                                                                
 INPUT CARD>                                                                                
 INPUT CARD> $DRT                                                                           
 INPUT CARD>  NMCC=32                                                                       
 INPUT CARD>  NDOC=1                                                                        
 INPUT CARD>  NALP=0                                                                        
 INPUT CARD>  NVAL=1                                                                        
 INPUT CARD>  NEXT=0                                                                        
 INPUT CARD>  ISTSYM=1                                                                      
 INPUT CARD>  FORS=.TRUE.                                                                   
 INPUT CARD>  GROUP=C1                                                                      
 INPUT CARD>  MXNINT= 600000                                                                
 INPUT CARD>  NPRT=2                                                                        
 INPUT CARD> $END                                                                           
 INPUT CARD>                                                                                
 INPUT CARD> $GUGDM                                                                         
 INPUT CARD>  NFLGDM(1)=1,1                                                                 
 INPUT CARD>  WSTATE(1)=0.5,0.5                                                             

 ..... DONE SETTING UP THE RUN .....
    1000000 WORDS OF MEMORY AVAILABLE

     BASIS OPTIONS
     -------------
     GBASIS=ACCD         IGAUSS=       0      POLAR=NONE    
     NDFUNC=       0     NFFUNC=       0     DIFFSP=       F
     NPFUNC=       0      DIFFS=       F


     RUN TITLE
     ---------
 C7                                                                              

 THE POINT GROUP OF THE MOLECULE IS C1      
 THE ORDER OF THE PRINCIPAL AXIS IS     0

 ATOM      ATOMIC                      COORDINATES (BOHR)
           CHARGE         X                   Y                   Z
 H           1.0     0.0000000000        0.0000000000        2.9032975288
 H           1.0     0.0000000000        2.2113290049       -2.4794130925
 H           1.0     0.0000000000       -2.2113290049       -2.4794130925
 H           1.0     0.0000000000        4.8201996659        2.7398116644
 H           1.0     0.0000000000       -4.8201996659        2.7398116644
 H           1.0     0.0000000000        6.6290019177       -2.8100527794
 H           1.0     0.0000000000       -6.6290019177       -2.8100527794
 H           1.0     0.0000000000        9.5302868883        1.9562292247
 H           1.0     0.0000000000       -9.5302868883        1.9562292247
 H           1.0     0.0000000000       10.6358805260       -1.0929400325
 H           1.0     0.0000000000      -10.6358805260       -1.0929400325
 C           6.0     0.0000000000        0.0000000000        0.8529051478
 C           6.0     0.0000000000        2.2827700959       -0.4241773438
 C           6.0     0.0000000000       -2.2827700959       -0.4241773438
 C           6.0     0.0000000000        4.6586923447        0.6961089135
 C           6.0     0.0000000000       -4.6586923447        0.6961089135
 C           6.0     0.0000000000        6.8083123475       -0.7671002496
 C           6.0     0.0000000000       -6.8083123475       -0.7671002496
 N           7.0     0.0000000000        9.1544071612        0.0924321672
 N           7.0     0.0000000000       -9.1544071612        0.0924321672

          INTERNUCLEAR DISTANCES (ANGS.)
          ------------------------------

                    H              H              H              H         

  1  H               0.0000000      3.0794092      3.0794092      2.5522067 *  
  2  H               3.0794092      0.0000000      2.3403700 *    3.0877170    
  3  H               3.0794092      2.3403700 *    0.0000000      4.6339343    
  4  H               2.5522067 *    3.0877170      4.6339343      0.0000000    
  5  H               2.5522067 *    4.6339343      3.0877170      5.1014800    
  6  H               4.6310126      2.3442705 *    4.6813729      3.0889070    
  7  H               4.6310126      4.6813729      2.3442705 *    6.7329401    
  8  H               5.0680515      4.5287825      6.6419749      2.5267271 *  
  9  H               5.0680515      6.6419749      4.5287825      7.6052633    
 10  H               6.0124380      4.5180513      6.8379264      3.6857539    
 11  H               6.0124380      6.8379264      4.5180513      8.4267286    
 12  C               1.0850210 *    2.1163333 *    2.1163333 *    2.7392139 *  
 13  C               2.1353550 *    1.0882409 *    2.6150632 *    2.1462281 *  
 14  C               2.1353550 *    2.6150632 *    1.0882409 *    4.1147744    
 15  C               2.7279637 *    2.1215670 *    4.0050410      1.0848528 *  
 16  C               2.7279637 *    4.0050410      2.1215670 *    5.1312764    
 17  C               4.0930051      2.5958974 *    4.8582375      2.1332488 *  
 18  C               4.0930051      4.8582375      2.5958974 *    6.4272868    
 19  N               5.0675218      3.9180822      6.1665465      2.6875731 *  
 20  N               5.0675218      6.1665465      3.9180822      7.5265722    

                    H              H              H              H         

  1  H               2.5522067 *    4.6310126      4.6310126      5.0680515    
  2  H               4.6339343      2.3442705 *    4.6813729      4.5287825    
  3  H               3.0877170      4.6813729      2.3442705 *    6.6419749    
  4  H               5.1014800      3.0889070      6.7329401      2.5267271 *  
  5  H               0.0000000      6.7329401      3.0889070      7.6052633    
  6  H               6.7329401      0.0000000      7.0158340      2.9527379 *  
  7  H               3.0889070      7.0158340      0.0000000      8.9153420    
  8  H               7.6052633      2.9527379 *    8.9153420      0.0000000    
  9  H               2.5267271 *    8.9153420      2.9527379 *   10.0864220    
 10  H               8.4267286      2.3068458 *    9.1812579      1.7163438 *  
 11  H               3.6857539      9.1812579      2.3068458 *   10.7927739    
 12  C               2.7392139 *    4.0078296      4.0078296      5.0768950    
 13  C               4.1147744      2.6236805 *    4.8819887      4.0367878    
 14  C               2.1462281 *    4.8819887      2.6236805 *    6.3768526    
 15  C               5.1312764      2.1282723 *    6.2547142      2.6627838 *  
 16  C               1.0848528 *    6.2547142      2.1282723 *    7.5380372    
 17  C               6.4272868      1.0852401 *    7.1924332      2.0375502 *  
 18  C               2.1332488 *    7.1924332      1.0852401 *    8.7652960    
 19  N               7.5265722      2.0359293 *    8.4922714      1.0061363 *  
 20  N               2.6875731 *    8.4922714      2.0359293 *    9.9365839    

                    H              H              H              C         

  1  H               5.0680515      6.0124380      6.0124380      1.0850210 *  
  2  H               6.6419749      4.5180513      6.8379264      2.1163333 *  
  3  H               4.5287825      6.8379264      4.5180513      2.1163333 *  
  4  H               7.6052633      3.6857539      8.4267286      2.7392139 *  
  5  H               2.5267271 *    8.4267286      3.6857539      2.7392139 *  
  6  H               8.9153420      2.3068458 *    9.1812579      4.0078296    
  7  H               2.9527379 *    9.1812579      2.3068458 *    4.0078296    
  8  H              10.0864220      1.7163438 *   10.7927739      5.0768950    
  9  H               0.0000000     10.7927739      1.7163438 *    5.0768950    
 10  H              10.7927739      0.0000000     11.2565320      5.7216828    
 11  H               1.7163438 *   11.2565320      0.0000000      5.7216828    
 12  C               5.0768950      5.7216828      5.7216828      0.0000000    
 13  C               6.3768526      4.4344200      6.8454099      1.3841783 *  
 14  C               4.0367878      6.8454099      4.4344200      1.3841783 *  
 15  C               7.5380372      3.3016367      8.1487224      2.4666699 *  
 16  C               2.6627838 *    8.1487224      3.3016367      2.4666699 *  
 17  C               8.7652960      2.0327881 *    9.2326802      3.7033915    
 18  C               2.0375502 *    9.2326802      2.0327881 *    3.7033915    
 19  N               9.9365839      1.0040252 *   10.4913389      4.8609903    
 20  N               1.0061363 *   10.4913389      1.0040252 *    4.8609903    

                    C              C              C              C         

  1  H               2.1353550 *    2.1353550 *    2.7279637 *    2.7279637 *  
  2  H               1.0882409 *    2.6150632 *    2.1215670 *    4.0050410    
  3  H               2.6150632 *    1.0882409 *    4.0050410      2.1215670 *  
  4  H               2.1462281 *    4.1147744      1.0848528 *    5.1312764    
  5  H               4.1147744      2.1462281 *    5.1312764      1.0848528 *  
  6  H               2.6236805 *    4.8819887      2.1282723 *    6.2547142    
  7  H               4.8819887      2.6236805 *    6.2547142      2.1282723 *  
  8  H               4.0367878      6.3768526      2.6627838 *    7.5380372    
  9  H               6.3768526      4.0367878      7.5380372      2.6627838 *  
 10  H               4.4344200      6.8454099      3.3016367      8.1487224    
 11  H               6.8454099      4.4344200      8.1487224      3.3016367    
 12  C               1.3841783 *    1.3841783 *    2.4666699 *    2.4666699 *  
 13  C               0.0000000      2.4159800 *    1.3900397 *    3.7207951    
 14  C               2.4159800 *    0.0000000      3.7207951      1.3900397 *  
 15  C               1.3900397 *    3.7207951      0.0000000      4.9305480    
 16  C               3.7207951      1.3900397 *    4.9305480      0.0000000    
 17  C               2.4016795 *    4.8142153      1.3760488 *    6.1172793    
 18  C               4.8142153      2.4016795 *    6.1172793      1.3760488 *  
 19  N               3.6465758      6.0584650      2.4003819 *    7.3165552    
 20  N               6.0584650      3.6465758      7.3165552      2.4003819 *  

                    C              C              N              N         

  1  H               4.0930051      4.0930051      5.0675218      5.0675218    
  2  H               2.5958974 *    4.8582375      3.9180822      6.1665465    
  3  H               4.8582375      2.5958974 *    6.1665465      3.9180822    
  4  H               2.1332488 *    6.4272868      2.6875731 *    7.5265722    
  5  H               6.4272868      2.1332488 *    7.5265722      2.6875731 *  
  6  H               1.0852401 *    7.1924332      2.0359293 *    8.4922714    
  7  H               7.1924332      1.0852401 *    8.4922714      2.0359293 *  
  8  H               2.0375502 *    8.7652960      1.0061363 *    9.9365839    
  9  H               8.7652960      2.0375502 *    9.9365839      1.0061363 *  
 10  H               2.0327881 *    9.2326802      1.0040252 *   10.4913389    
 11  H               9.2326802      2.0327881 *   10.4913389      1.0040252 *  
 12  C               3.7033915      3.7033915      4.8609903      4.8609903    
 13  C               2.4016795 *    4.8142153      3.6465758      6.0584650    
 14  C               4.8142153      2.4016795 *    6.0584650      3.6465758    
 15  C               1.3760488 *    6.1172793      2.4003819 *    7.3165552    
 16  C               6.1172793      1.3760488 *    7.3165552      2.4003819 *  
 17  C               0.0000000      7.2056080      1.3221975 *    8.4593450    
 18  C               7.2056080      0.0000000      8.4593450      1.3221975 *  
 19  N               1.3221975 *    8.4593450      0.0000000      9.6886080    
 20  N               8.4593450      1.3221975 *    9.6886080      0.0000000    

  * ... LESS THAN  3.000


     ATOMIC BASIS SET
     ----------------
 THE CONTRACTED PRIMITIVE FUNCTIONS HAVE BEEN UNNORMALIZED
 THE CONTRACTED BASIS FUNCTIONS ARE NOW NORMALIZED TO UNITY

  SHELL TYPE  PRIMITIVE        EXPONENT          CONTRACTION COEFFICIENT(S)

 H         

      1   S       1            13.0100000    0.033498726390
      1   S       2             1.9620000    0.234800801174
      1   S       3             0.4446000    0.813682957883

      2   S       4             0.1220000    1.000000000000

      3   P       5             0.7270000    1.000000000000

      4   S       6             0.0297400    1.000000000000

      5   P       7             0.1410000    1.000000000000

 H         

      6   S       8            13.0100000    0.033498726390
      6   S       9             1.9620000    0.234800801174
      6   S      10             0.4446000    0.813682957883

      7   S      11             0.1220000    1.000000000000

      8   P      12             0.7270000    1.000000000000

      9   S      13             0.0297400    1.000000000000

     10   P      14             0.1410000    1.000000000000

 H         

     11   S      15            13.0100000    0.033498726390
     11   S      16             1.9620000    0.234800801174
     11   S      17             0.4446000    0.813682957883

     12   S      18             0.1220000    1.000000000000

     13   P      19             0.7270000    1.000000000000

     14   S      20             0.0297400    1.000000000000

     15   P      21             0.1410000    1.000000000000

 H         

     16   S      22            13.0100000    0.033498726390
     16   S      23             1.9620000    0.234800801174
     16   S      24             0.4446000    0.813682957883

     17   S      25             0.1220000    1.000000000000

     18   P      26             0.7270000    1.000000000000

     19   S      27             0.0297400    1.000000000000

     20   P      28             0.1410000    1.000000000000

 H         

     21   S      29            13.0100000    0.033498726390
     21   S      30             1.9620000    0.234800801174
     21   S      31             0.4446000    0.813682957883

     22   S      32             0.1220000    1.000000000000

     23   P      33             0.7270000    1.000000000000

     24   S      34             0.0297400    1.000000000000

     25   P      35             0.1410000    1.000000000000

 H         

     26   S      36            13.0100000    0.033498726390
     26   S      37             1.9620000    0.234800801174
     26   S      38             0.4446000    0.813682957883

     27   S      39             0.1220000    1.000000000000

     28   P      40             0.7270000    1.000000000000

     29   S      41             0.0297400    1.000000000000

     30   P      42             0.1410000    1.000000000000

 H         

     31   S      43            13.0100000    0.033498726390
     31   S      44             1.9620000    0.234800801174
     31   S      45             0.4446000    0.813682957883

     32   S      46             0.1220000    1.000000000000

     33   P      47             0.7270000    1.000000000000

     34   S      48             0.0297400    1.000000000000

     35   P      49             0.1410000    1.000000000000

 H         

     36   S      50            13.0100000    0.033498726390
     36   S      51             1.9620000    0.234800801174
     36   S      52             0.4446000    0.813682957883

     37   S      53             0.1220000    1.000000000000

     38   P      54             0.7270000    1.000000000000

     39   S      55             0.0297400    1.000000000000

     40   P      56             0.1410000    1.000000000000

 H         

     41   S      57            13.0100000    0.033498726390
     41   S      58             1.9620000    0.234800801174
     41   S      59             0.4446000    0.813682957883

     42   S      60             0.1220000    1.000000000000

     43   P      61             0.7270000    1.000000000000

     44   S      62             0.0297400    1.000000000000

     45   P      63             0.1410000    1.000000000000

 H         

     46   S      64            13.0100000    0.033498726390
     46   S      65             1.9620000    0.234800801174
     46   S      66             0.4446000    0.813682957883

     47   S      67             0.1220000    1.000000000000

     48   P      68             0.7270000    1.000000000000

     49   S      69             0.0297400    1.000000000000

     50   P      70             0.1410000    1.000000000000

 H         

     51   S      71            13.0100000    0.033498726390
     51   S      72             1.9620000    0.234800801174
     51   S      73             0.4446000    0.813682957883

     52   S      74             0.1220000    1.000000000000

     53   P      75             0.7270000    1.000000000000

     54   S      76             0.0297400    1.000000000000

     55   P      77             0.1410000    1.000000000000

 C         

     56   S      78          6665.0000000    0.000691583963
     56   S      79          1000.0000000    0.005325796153
     56   S      80           228.0000000    0.027060721042
     56   S      81            64.7100000    0.101656846141
     56   S      82            21.0600000    0.274574823617
     56   S      83             7.4950000    0.448294318924
     56   S      84             2.7970000    0.284902610715
     56   S      85             0.5215000    0.015194859206

     57   S      86          6665.0000000   -0.000293269653
     57   S      87          1000.0000000   -0.002318035474
     57   S      88           228.0000000   -0.011499786039
     57   S      89            64.7100000   -0.046826727010
     57   S      90            21.0600000   -0.128466168750
     57   S      91             7.4950000   -0.301266272463
     57   S      92             2.7970000   -0.255630702330
     57   S      93             0.5215000    1.093793361012

     58   S      94             0.1596000    1.000000000000

     59   P      95             9.4390000    0.056979251590
     59   P      96             2.0020000    0.313207211501
     59   P      97             0.5456000    0.760376741738

     60   P      98             0.1517000    1.000000000000

     61   D      99             0.5500000    1.000000000000

     62   S     100             0.0469000    1.000000000000

     63   P     101             0.0404100    1.000000000000

     64   D     102             0.1510000    1.000000000000

 C         

     65   S     103          6665.0000000    0.000691583963
     65   S     104          1000.0000000    0.005325796153
     65   S     105           228.0000000    0.027060721042
     65   S     106            64.7100000    0.101656846141
     65   S     107            21.0600000    0.274574823617
     65   S     108             7.4950000    0.448294318924
     65   S     109             2.7970000    0.284902610715
     65   S     110             0.5215000    0.015194859206

     66   S     111          6665.0000000   -0.000293269653
     66   S     112          1000.0000000   -0.002318035474
     66   S     113           228.0000000   -0.011499786039
     66   S     114            64.7100000   -0.046826727010
     66   S     115            21.0600000   -0.128466168750
     66   S     116             7.4950000   -0.301266272463
     66   S     117             2.7970000   -0.255630702330
     66   S     118             0.5215000    1.093793361012

     67   S     119             0.1596000    1.000000000000

     68   P     120             9.4390000    0.056979251590
     68   P     121             2.0020000    0.313207211501
     68   P     122             0.5456000    0.760376741738

     69   P     123             0.1517000    1.000000000000

     70   D     124             0.5500000    1.000000000000

     71   S     125             0.0469000    1.000000000000

     72   P     126             0.0404100    1.000000000000

     73   D     127             0.1510000    1.000000000000

 C         

     74   S     128          6665.0000000    0.000691583963
     74   S     129          1000.0000000    0.005325796153
     74   S     130           228.0000000    0.027060721042
     74   S     131            64.7100000    0.101656846141
     74   S     132            21.0600000    0.274574823617
     74   S     133             7.4950000    0.448294318924
     74   S     134             2.7970000    0.284902610715
     74   S     135             0.5215000    0.015194859206

     75   S     136          6665.0000000   -0.000293269653
     75   S     137          1000.0000000   -0.002318035474
     75   S     138           228.0000000   -0.011499786039
     75   S     139            64.7100000   -0.046826727010
     75   S     140            21.0600000   -0.128466168750
     75   S     141             7.4950000   -0.301266272463
     75   S     142             2.7970000   -0.255630702330
     75   S     143             0.5215000    1.093793361012

     76   S     144             0.1596000    1.000000000000

     77   P     145             9.4390000    0.056979251590
     77   P     146             2.0020000    0.313207211501
     77   P     147             0.5456000    0.760376741738

     78   P     148             0.1517000    1.000000000000

     79   D     149             0.5500000    1.000000000000

     80   S     150             0.0469000    1.000000000000

     81   P     151             0.0404100    1.000000000000

     82   D     152             0.1510000    1.000000000000

 C         

     83   S     153          6665.0000000    0.000691583963
     83   S     154          1000.0000000    0.005325796153
     83   S     155           228.0000000    0.027060721042
     83   S     156            64.7100000    0.101656846141
     83   S     157            21.0600000    0.274574823617
     83   S     158             7.4950000    0.448294318924
     83   S     159             2.7970000    0.284902610715
     83   S     160             0.5215000    0.015194859206

     84   S     161          6665.0000000   -0.000293269653
     84   S     162          1000.0000000   -0.002318035474
     84   S     163           228.0000000   -0.011499786039
     84   S     164            64.7100000   -0.046826727010
     84   S     165            21.0600000   -0.128466168750
     84   S     166             7.4950000   -0.301266272463
     84   S     167             2.7970000   -0.255630702330
     84   S     168             0.5215000    1.093793361012

     85   S     169             0.1596000    1.000000000000

     86   P     170             9.4390000    0.056979251590
     86   P     171             2.0020000    0.313207211501
     86   P     172             0.5456000    0.760376741738

     87   P     173             0.1517000    1.000000000000

     88   D     174             0.5500000    1.000000000000

     89   S     175             0.0469000    1.000000000000

     90   P     176             0.0404100    1.000000000000

     91   D     177             0.1510000    1.000000000000

 C         

     92   S     178          6665.0000000    0.000691583963
     92   S     179          1000.0000000    0.005325796153
     92   S     180           228.0000000    0.027060721042
     92   S     181            64.7100000    0.101656846141
     92   S     182            21.0600000    0.274574823617
     92   S     183             7.4950000    0.448294318924
     92   S     184             2.7970000    0.284902610715
     92   S     185             0.5215000    0.015194859206

     93   S     186          6665.0000000   -0.000293269653
     93   S     187          1000.0000000   -0.002318035474
     93   S     188           228.0000000   -0.011499786039
     93   S     189            64.7100000   -0.046826727010
     93   S     190            21.0600000   -0.128466168750
     93   S     191             7.4950000   -0.301266272463
     93   S     192             2.7970000   -0.255630702330
     93   S     193             0.5215000    1.093793361012

     94   S     194             0.1596000    1.000000000000

     95   P     195             9.4390000    0.056979251590
     95   P     196             2.0020000    0.313207211501
     95   P     197             0.5456000    0.760376741738

     96   P     198             0.1517000    1.000000000000

     97   D     199             0.5500000    1.000000000000

     98   S     200             0.0469000    1.000000000000

     99   P     201             0.0404100    1.000000000000

    100   D     202             0.1510000    1.000000000000

 C         

    101   S     203          6665.0000000    0.000691583963
    101   S     204          1000.0000000    0.005325796153
    101   S     205           228.0000000    0.027060721042
    101   S     206            64.7100000    0.101656846141
    101   S     207            21.0600000    0.274574823617
    101   S     208             7.4950000    0.448294318924
    101   S     209             2.7970000    0.284902610715
    101   S     210             0.5215000    0.015194859206

    102   S     211          6665.0000000   -0.000293269653
    102   S     212          1000.0000000   -0.002318035474
    102   S     213           228.0000000   -0.011499786039
    102   S     214            64.7100000   -0.046826727010
    102   S     215            21.0600000   -0.128466168750
    102   S     216             7.4950000   -0.301266272463
    102   S     217             2.7970000   -0.255630702330
    102   S     218             0.5215000    1.093793361012

    103   S     219             0.1596000    1.000000000000

    104   P     220             9.4390000    0.056979251590
    104   P     221             2.0020000    0.313207211501
    104   P     222             0.5456000    0.760376741738

    105   P     223             0.1517000    1.000000000000

    106   D     224             0.5500000    1.000000000000

    107   S     225             0.0469000    1.000000000000

    108   P     226             0.0404100    1.000000000000

    109   D     227             0.1510000    1.000000000000

 C         

    110   S     228          6665.0000000    0.000691583963
    110   S     229          1000.0000000    0.005325796153
    110   S     230           228.0000000    0.027060721042
    110   S     231            64.7100000    0.101656846141
    110   S     232            21.0600000    0.274574823617
    110   S     233             7.4950000    0.448294318924
    110   S     234             2.7970000    0.284902610715
    110   S     235             0.5215000    0.015194859206

    111   S     236          6665.0000000   -0.000293269653
    111   S     237          1000.0000000   -0.002318035474
    111   S     238           228.0000000   -0.011499786039
    111   S     239            64.7100000   -0.046826727010
    111   S     240            21.0600000   -0.128466168750
    111   S     241             7.4950000   -0.301266272463
    111   S     242             2.7970000   -0.255630702330
    111   S     243             0.5215000    1.093793361012

    112   S     244             0.1596000    1.000000000000

    113   P     245             9.4390000    0.056979251590
    113   P     246             2.0020000    0.313207211501
    113   P     247             0.5456000    0.760376741738

    114   P     248             0.1517000    1.000000000000

    115   D     249             0.5500000    1.000000000000

    116   S     250             0.0469000    1.000000000000

    117   P     251             0.0404100    1.000000000000

    118   D     252             0.1510000    1.000000000000

 N         

    119   S     253          9046.0000000    0.000699617413
    119   S     254          1357.0000000    0.005386054630
    119   S     255           309.3000000    0.027391021189
    119   S     256            87.7300000    0.103150591982
    119   S     257            28.5600000    0.278570663317
    119   S     258            10.2100000    0.448294849454
    119   S     259             3.8380000    0.278085928395
    119   S     260             0.7466000    0.015431561233

    120   S     261          9046.0000000   -0.000304990096
    120   S     262          1357.0000000   -0.002408026379
    120   S     263           309.3000000   -0.011944448725
    120   S     264            87.7300000   -0.048925992909
    120   S     265            28.5600000   -0.134472724725
    120   S     266            10.2100000   -0.315112577700
    120   S     267             3.8380000   -0.242857832550
    120   S     268             0.7466000    1.094382206854

    121   S     269             0.2248000    1.000000000000

    122   P     270            13.5500000    0.058905676772
    122   P     271             2.9170000    0.320461106714
    122   P     272             0.7973000    0.753042061792

    123   P     273             0.2185000    1.000000000000

    124   D     274             0.8170000    1.000000000000

    125   S     275             0.0612400    1.000000000000

    126   P     276             0.0561100    1.000000000000

    127   D     277             0.2300000    1.000000000000

 N         

    128   S     278          9046.0000000    0.000699617413
    128   S     279          1357.0000000    0.005386054630
    128   S     280           309.3000000    0.027391021189
    128   S     281            87.7300000    0.103150591982
    128   S     282            28.5600000    0.278570663317
    128   S     283            10.2100000    0.448294849454
    128   S     284             3.8380000    0.278085928395
    128   S     285             0.7466000    0.015431561233

    129   S     286          9046.0000000   -0.000304990096
    129   S     287          1357.0000000   -0.002408026379
    129   S     288           309.3000000   -0.011944448725
    129   S     289            87.7300000   -0.048925992909
    129   S     290            28.5600000   -0.134472724725
    129   S     291            10.2100000   -0.315112577700
    129   S     292             3.8380000   -0.242857832550
    129   S     293             0.7466000    1.094382206854

    130   S     294             0.2248000    1.000000000000

    131   P     295            13.5500000    0.058905676772
    131   P     296             2.9170000    0.320461106714
    131   P     297             0.7973000    0.753042061792

    132   P     298             0.2185000    1.000000000000

    133   D     299             0.8170000    1.000000000000

    134   S     300             0.0612400    1.000000000000

    135   P     301             0.0561100    1.000000000000

    136   D     302             0.2300000    1.000000000000

 TOTAL NUMBER OF BASIS SET SHELLS             =  136
 NUMBER OF CARTESIAN GAUSSIAN BASIS FUNCTIONS =  324
 NOTE: THIS RUN WILL RESTRICT THE MO VARIATION SPACE TO SPHERICAL HARMONICS.
 THE NUMBER OF ORBITALS KEPT IN THE VARIATIONAL SPACE WILL BE PRINTED LATER.
 NUMBER OF ELECTRONS                          =   66
 CHARGE OF MOLECULE                           =    1
 SPIN MULTIPLICITY                            =    1
 NUMBER OF OCCUPIED ORBITALS (ALPHA)          =   33
 NUMBER OF OCCUPIED ORBITALS (BETA )          =   33
 TOTAL NUMBER OF ATOMS                        =   20
 THE NUCLEAR REPULSION ENERGY IS      378.1181902989

     $CONTRL OPTIONS
     ---------------
 SCFTYP=MCSCF        RUNTYP=ENERGY       EXETYP=RUN     
 MPLEVL=       0     CITYP =NONE         CCTYP =NONE         VBTYP =NONE    
 MULT  =       1     ICHARG=       1     NZVAR =       0     COORD =UNIQUE  
 PP    =NONE         RELWFN=NONE         LOCAL =NONE         NUMGRD=       F
 ISPHER=       1     NOSYM =       0     MAXIT =     100     UNITS =ANGS    
 PLTORB=       F     MOLPLT=       F     AIMPAC=       F     FRIEND=        
 NPRINT=       7     IREST =       0     GEOM  =INPUT   
 NORMF =       0     NORMP =       0     ITOL  =      20     ICUT  =       9
 INTTYP=BEST         GRDTYP=BEST         QMTTOL= 1.0E-06

     $SYSTEM OPTIONS
     ---------------
  REPLICATED MEMORY=     1000000 WORDS (ON EVERY NODE).
 DISTRIBUTED MEMDDI=           0 MILLION WORDS IN AGGREGATE,
 MEMDDI DISTRIBUTED OVER   1 PROCESSORS IS           0 WORDS/PROCESSOR.
 TOTAL MEMORY REQUESTED ON EACH PROCESSOR=     1000000 WORDS.
 TIMLIM=      525600.00 MINUTES, OR   365.00 DAYS.
 PARALL= F  BALTYP=  NXTVAL  KDIAG=    0  COREFL= F

          ----------------
          PROPERTIES INPUT
          ----------------

     MOMENTS            FIELD           POTENTIAL          DENSITY
 IEMOM =       1   IEFLD =       0   IEPOT =       0   IEDEN =       0
 WHERE =COMASS     WHERE =NUCLEI     WHERE =NUCLEI     WHERE =NUCLEI  
 OUTPUT=BOTH       OUTPUT=BOTH       OUTPUT=BOTH       OUTPUT=BOTH    
 IEMINT=       0   IEFINT=       0                     IEDINT=       0
                                                       MORB  =       0

     -------------------------------
     INTEGRAL TRANSFORMATION OPTIONS
     -------------------------------
     NWORD  =       0     CUTOFF = 1.0E-09
     MPTRAN =       0     DIRTRF =       F
     AOINTS =DUP     

          ----------------------
          MCSCF INPUT PARAMETERS
          ----------------------
 CONVERGER SELECTION: FOCAS = F  SOSCF = T  FULLNR = F  QUD = F  JACOBI = F
 SECULAR EQUATION METHOD CISTEP = GUGA    
 --- GENERAL INPUT OPTIONS:
 MAXIT =    1000  MICIT =       5  ACURCY= 1.000E-05
 DAMP  =   0.000  CANONC=       T  ENGTOL= 1.000E-10
 EKT   =       F  NPUNCH=       2  NWORD =         0
 --- INPUT FOR SOSCF CONVERGER:
 FORS  =       T  NOFO  =       1

          ----------------------
          INTEGRAL INPUT OPTIONS
          ----------------------
 NOPK  =       1 NORDER=       0 SCHWRZ=       T

     ------------------------------------------
     THE POINT GROUP IS C1 , NAXIS= 0, ORDER= 1
     ------------------------------------------

 -- VARIATIONAL SPACE WILL BE RESTRICTED TO PURE SPHERICAL HARMONICS ONLY --
 AFTER EXCLUDING CONTAMINANT COMBINATIONS FROM THE CARTESIAN GAUSSIAN BASIS
 SET, THE NUMBER OF SPHERICAL HARMONICS KEPT IN THE VARIATION SPACE IS  306

     DIMENSIONS OF THE SYMMETRY SUBSPACES ARE
 A   =  306

 ..... DONE SETTING UP THE RUN .....
 STEP CPU TIME =     0.09 TOTAL CPU TIME =        0.1 (    0.0 MIN)
 TOTAL WALL CLOCK TIME=        0.0 SECONDS, CPU UTILIZATION IS 100.00%

          ********************
          1 ELECTRON INTEGRALS
          ********************
 TIME TO DO   DIPOLE INTEGRALS=      0.05
 ...... END OF ONE-ELECTRON INTEGRALS ......
 STEP CPU TIME =     0.05 TOTAL CPU TIME =        0.1 (    0.0 MIN)
 TOTAL WALL CLOCK TIME=        0.0 SECONDS, CPU UTILIZATION IS 100.00%

          -------------
          GUESS OPTIONS
          -------------
          GUESS =MOREAD            NORB  =     306          NORDER=       0
          MIX   =       F          PRTMO =       F          PUNMO =       F
          TOLZ  = 1.0E-08          TOLE  = 1.0E-05
          SYMDEN=       F          PURIFY=       F

 INITIAL GUESS ORBITALS GENERATED BY MOREAD   ROUTINE.

 STATISTICS FOR GENERATION OF SYMMETRY ORBITAL -Q- MATRIX
 NUMBER OF CARTESIAN ATOMIC ORBITALS=        324
 NUMBER OF SPHERICAL CONTAMINANTS DROPPED=    18
 NUMBER OF LINEARLY DEPENDENT MOS DROPPED=     0
 TOTAL NUMBER OF MOS IN VARIATION SPACE=     306

                    * * * * * WARNING * * * * *
 POSSIBLE LINEAR DEPENDENCE PROBLEMS DETECTED, INPUT QMTTOL= 1.0E-06,
 WITH     4 OVERLAP EIGENVALUES LYING BETWEEN 1.0E-05 AND QMTTOL.
 IF YOU EXPERIENCE SCF CONVERGENCE DIFFICULTIES WITH THE DENSITY ALMOST BUT
 NOT QUITE CONVERGED, YOU MAY NEED TO LOOSEN -QMTTOL- BY A FACTOR 5 TO 10.

 SYMMETRIES FOR INITIAL GUESS ORBITALS FOLLOW.   BOTH SET(S).
    34 ORBITALS ARE OCCUPIED (    9 CORE ORBITALS).
     1=A        2=A        3=A        4=A        5=A        6=A        7=A   
     8=A        9=A       10=A       11=A       12=A       13=A       14=A   
    15=A       16=A       17=A       18=A       19=A       20=A       21=A   
    22=A       23=A       24=A       25=A       26=A       27=A       28=A   
    29=A       30=A       31=A       32=A       33=A       34=A       35=A   
    36=A       37=A       38=A       39=A       40=A       41=A       42=A   
    43=A       44=A       45=A       46=A       47=A       48=A       49=A   
    50=A       51=A       52=A       53=A       54=A       55=A       56=A   
    57=A       58=A       59=A       60=A       61=A       62=A       63=A   
    64=A       65=A       66=A       67=A       68=A       69=A       70=A   
    71=A       72=A       73=A       74=A       75=A       76=A       77=A   
    78=A       79=A       80=A       81=A       82=A       83=A       84=A   
    85=A       86=A       87=A       88=A       89=A       90=A       91=A   
    92=A       93=A       94=A       95=A       96=A       97=A       98=A   
    99=A      100=A      101=A      102=A      103=A      104=A      105=A   
   106=A      107=A      108=A      109=A      110=A      111=A      112=A   
   113=A      114=A      115=A      116=A      117=A      118=A      119=A   
   120=A      121=A      122=A      123=A      124=A      125=A      126=A   
   127=A      128=A      129=A      130=A      131=A      132=A      133=A   
   134=A      135=A      136=A      137=A      138=A      139=A      140=A   
   141=A      142=A      143=A      144=A      145=A      146=A      147=A   
   148=A      149=A      150=A      151=A      152=A      153=A      154=A   
   155=A      156=A      157=A      158=A      159=A      160=A      161=A   
   162=A      163=A      164=A      165=A      166=A      167=A      168=A   
   169=A      170=A      171=A      172=A      173=A      174=A      175=A   
   176=A      177=A      178=A      179=A      180=A      181=A      182=A   
   183=A      184=A      185=A      186=A      187=A      188=A      189=A   
   190=A      191=A      192=A      193=A      194=A      195=A      196=A   
   197=A      198=A      199=A      200=A      201=A      202=A      203=A   
   204=A      205=A      206=A      207=A      208=A      209=A      210=A   
   211=A      212=A      213=A      214=A      215=A      216=A      217=A   
   218=A      219=A      220=A      221=A      222=A      223=A      224=A   
   225=A      226=A      227=A      228=A      229=A      230=A      231=A   
   232=A      233=A      234=A      235=A      236=A      237=A      238=A   
   239=A      240=A      241=A      242=A      243=A      244=A      245=A   
   246=A      247=A      248=A      249=A      250=A      251=A      252=A   
   253=A      254=A      255=A      256=A      257=A      258=A      259=A   
   260=A      261=A      262=A      263=A      264=A      265=A      266=A   
   267=A      268=A      269=A      270=A      271=A      272=A      273=A   
   274=A      275=A      276=A      277=A      278=A      279=A      280=A   
   281=A      282=A      283=A      284=A      285=A      286=A      287=A   
   288=A      289=A      290=A      291=A      292=A      293=A      294=A   
   295=A      296=A      297=A      298=A      299=A      300=A      301=A   
   302=A      303=A      304=A      305=A      306=A   
 ...... END OF INITIAL ORBITAL SELECTION ......
 STEP CPU TIME =     0.15 TOTAL CPU TIME =        0.3 (    0.0 MIN)
 TOTAL WALL CLOCK TIME=        0.0 SECONDS, CPU UTILIZATION IS 100.00%

                    ----------------------
                    AO INTEGRAL TECHNOLOGY
                    ----------------------
     S,P,L SHELL ROTATED AXIS INTEGRALS, REPROGRAMMED BY
        KAZUYA ISHIMURA (IMS) AND JOSE SIERRA (SYNSTAR).
     S,P,D,L SHELL ROTATED AXIS INTEGRALS PROGRAMMED BY
        KAZUYA ISHIMURA (INSTITUTE FOR MOLECULAR SCIENCE).
     S,P,D,F,G SHELL TO TOTAL QUARTET ANGULAR MOMENTUM SUM 5,
        ERIC PROGRAM BY GRAHAM FLETCHER (ELORET AND NASA ADVANCED
        SUPERCOMPUTING DIVISION, AMES RESEARCH CENTER).
     S,P,D,F,G,L SHELL GENERAL RYS QUADRATURE PROGRAMMED BY
        MICHEL DUPUIS (PACIFIC NORTHWEST NATIONAL LABORATORY).

          --------------------
          2 ELECTRON INTEGRALS
          --------------------

 THE -PK- OPTION IS OFF, THE INTEGRALS ARE NOT IN SUPERMATRIX FORM.
 STORING   15000 INTEGRALS/RECORD ON DISK, USING 16 BYTES/INTEGRAL.
 TWO ELECTRON INTEGRAL EVALUATION REQUIRES   99712 WORDS OF MEMORY.
 SCHWARZ INEQUALITY OVERHEAD:     49039 INTEGRALS, T=        0.01
 II,JST,KST,LST =  1  1  1  1 NREC =         1 INTLOC =    1
 II,JST,KST,LST =  2  1  1  1 NREC =         1 INTLOC =    2
 II,JST,KST,LST =  3  1  1  1 NREC =         1 INTLOC =    7
 II,JST,KST,LST =  4  1  1  1 NREC =         1 INTLOC =   34
 II,JST,KST,LST =  5  1  1  1 NREC =         1 INTLOC =   67
 II,JST,KST,LST =  6  1  1  1 NREC =         1 INTLOC =  214
 II,JST,KST,LST =  7  1  1  1 NREC =         1 INTLOC =  528
 II,JST,KST,LST =  8  1  1  1 NREC =         1 INTLOC =  959
 II,JST,KST,LST =  9  1  1  1 NREC =         1 INTLOC = 2726
 II,JST,KST,LST = 10  1  1  1 NREC =         1 INTLOC = 3731
 II,JST,KST,LST = 11  1  1  1 NREC =         1 INTLOC = 7458
 II,JST,KST,LST = 12  1  1  1 NREC =         1 INTLOC = 9391
 II,JST,KST,LST = 13  1  1  1 NREC =         1 INTLOC =11687
 II,JST,KST,LST = 14  1  1  1 NREC =         2 INTLOC = 4316
 II,JST,KST,LST = 15  1  1  1 NREC =         2 INTLOC = 8064
 II,JST,KST,LST = 16  1  1  1 NREC =         3 INTLOC = 5260
 II,JST,KST,LST = 17  1  1  1 NREC =         3 INTLOC =10923
 II,JST,KST,LST = 18  1  1  1 NREC =         4 INTLOC = 3227
 II,JST,KST,LST = 19  1  1  1 NREC =         5 INTLOC = 8100
 II,JST,KST,LST = 20  1  1  1 NREC =         6 INTLOC = 3548
 II,JST,KST,LST = 21  1  1  1 NREC =         8 INTLOC = 6619
 II,JST,KST,LST = 22  1  1  1 NREC =         9 INTLOC = 2899
 II,JST,KST,LST = 23  1  1  1 NREC =        10 INTLOC = 3503
 II,JST,KST,LST = 24  1  1  1 NREC =        12 INTLOC = 9840
 II,JST,KST,LST = 25  1  1  1 NREC =        14 INTLOC =  421
 II,JST,KST,LST = 26  1  1  1 NREC =        18 INTLOC = 1735
 II,JST,KST,LST = 27  1  1  1 NREC =        19 INTLOC = 5324
 II,JST,KST,LST = 28  1  1  1 NREC =        21 INTLOC = 2483
 II,JST,KST,LST = 29  1  1  1 NREC =        24 INTLOC =13677
 II,JST,KST,LST = 30  1  1  1 NREC =        27 INTLOC = 4815
 II,JST,KST,LST = 31  1  1  1 NREC =        33 INTLOC =14228
 II,JST,KST,LST = 32  1  1  1 NREC =        35 INTLOC =10674
 II,JST,KST,LST = 33  1  1  1 NREC =        38 INTLOC = 6509
 II,JST,KST,LST = 34  1  1  1 NREC =        43 INTLOC = 8113
 II,JST,KST,LST = 35  1  1  1 NREC =        47 INTLOC = 4127
 II,JST,KST,LST = 36  1  1  1 NREC =        56 INTLOC = 9000
 II,JST,KST,LST = 37  1  1  1 NREC =        58 INTLOC =13469
 II,JST,KST,LST = 38  1  1  1 NREC =        62 INTLOC = 6819
 II,JST,KST,LST = 39  1  1  1 NREC =        69 INTLOC =   99
 II,JST,KST,LST = 40  1  1  1 NREC =        74 INTLOC = 5872
 II,JST,KST,LST = 41  1  1  1 NREC =        86 INTLOC = 1398
 II,JST,KST,LST = 42  1  1  1 NREC =        88 INTLOC =14562
 II,JST,KST,LST = 43  1  1  1 NREC =        93 INTLOC = 5860
 II,JST,KST,LST = 44  1  1  1 NREC =       101 INTLOC = 5807
 II,JST,KST,LST = 45  1  1  1 NREC =       108 INTLOC = 8583
 II,JST,KST,LST = 46  1  1  1 NREC =       122 INTLOC =10735
 II,JST,KST,LST = 47  1  1  1 NREC =       126 INTLOC =12699
 II,JST,KST,LST = 48  1  1  1 NREC =       132 INTLOC =11060
 II,JST,KST,LST = 49  1  1  1 NREC =       143 INTLOC =14821
 II,JST,KST,LST = 50  1  1  1 NREC =       153 INTLOC = 7657
 II,JST,KST,LST = 51  1  1  1 NREC =       172 INTLOC = 1286
 II,JST,KST,LST = 52  1  1  1 NREC =       177 INTLOC =  395
 II,JST,KST,LST = 53  1  1  1 NREC =       184 INTLOC =  864
 II,JST,KST,LST = 54  1  1  1 NREC =       197 INTLOC = 3973
 II,JST,KST,LST = 55  1  1  1 NREC =       209 INTLOC = 1727
 II,JST,KST,LST = 56  1  1  1 NREC =       230 INTLOC =12474
 II,JST,KST,LST = 57  1  1  1 NREC =       240 INTLOC = 2138
 II,JST,KST,LST = 58  1  1  1 NREC =       251 INTLOC = 7364
 II,JST,KST,LST = 59  1  1  1 NREC =       265 INTLOC =13069
 II,JST,KST,LST = 60  1  1  1 NREC =       298 INTLOC = 4310
 II,JST,KST,LST = 61  1  1  1 NREC =       342 INTLOC =11063
 II,JST,KST,LST = 62  1  1  1 NREC =       427 INTLOC = 5917
 II,JST,KST,LST = 63  1  1  1 NREC =       450 INTLOC = 2075
 II,JST,KST,LST = 64  1  1  1 NREC =       514 INTLOC = 3278
 II,JST,KST,LST = 65  1  1  1 NREC =       650 INTLOC =11019
 II,JST,KST,LST = 66  1  1  1 NREC =       671 INTLOC =11299
 II,JST,KST,LST = 67  1  1  1 NREC =       696 INTLOC =  860
 II,JST,KST,LST = 68  1  1  1 NREC =       725 INTLOC = 3711
 II,JST,KST,LST = 69  1  1  1 NREC =       794 INTLOC = 9104
 II,JST,KST,LST = 70  1  1  1 NREC =       883 INTLOC = 7494
 II,JST,KST,LST = 71  1  1  1 NREC =      1054 INTLOC = 9089
 II,JST,KST,LST = 72  1  1  1 NREC =      1097 INTLOC = 5470
 II,JST,KST,LST = 73  1  1  1 NREC =      1218 INTLOC = 2316
 II,JST,KST,LST = 74  1  1  1 NREC =      1468 INTLOC =13686
 II,JST,KST,LST = 75  1  1  1 NREC =      1507 INTLOC =13577
 II,JST,KST,LST = 76  1  1  1 NREC =      1552 INTLOC = 6861
 II,JST,KST,LST = 77  1  1  1 NREC =      1604 INTLOC = 6060
 II,JST,KST,LST = 78  1  1  1 NREC =      1731 INTLOC = 1807
 II,JST,KST,LST = 79  1  1  1 NREC =      1887 INTLOC = 3922
 II,JST,KST,LST = 80  1  1  1 NREC =      2188 INTLOC = 1309
 II,JST,KST,LST = 81  1  1  1 NREC =      2259 INTLOC = 3772
 II,JST,KST,LST = 82  1  1  1 NREC =      2460 INTLOC =  111
 II,JST,KST,LST = 83  1  1  1 NREC =      2873 INTLOC =10383
 II,JST,KST,LST = 84  1  1  1 NREC =      2935 INTLOC = 4560
 II,JST,KST,LST = 85  1  1  1 NREC =      3006 INTLOC = 6470
 II,JST,KST,LST = 86  1  1  1 NREC =      3087 INTLOC = 5434
 II,JST,KST,LST = 87  1  1  1 NREC =      3289 INTLOC = 9414
 II,JST,KST,LST = 88  1  1  1 NREC =      3532 INTLOC =  982
 II,JST,KST,LST = 89  1  1  1 NREC =      4000 INTLOC =13896
 II,JST,KST,LST = 90  1  1  1 NREC =      4110 INTLOC = 8844
 II,JST,KST,LST = 91  1  1  1 NREC =      4421 INTLOC = 7064
 II,JST,KST,LST = 92  1  1  1 NREC =      5041 INTLOC =12510
 II,JST,KST,LST = 93  1  1  1 NREC =      5128 INTLOC = 3891
 II,JST,KST,LST = 94  1  1  1 NREC =      5229 INTLOC = 3996
 II,JST,KST,LST = 95  1  1  1 NREC =      5349 INTLOC =13258
 II,JST,KST,LST = 96  1  1  1 NREC =      5635 INTLOC = 9678
 II,JST,KST,LST = 97  1  1  1 NREC =      5993 INTLOC = 6634
 II,JST,KST,LST = 98  1  1  1 NREC =      6645 INTLOC =11180
 II,JST,KST,LST = 99  1  1  1 NREC =      6804 INTLOC = 4203
 II,JST,KST,LST =100  1  1  1 NREC =      7253 INTLOC = 3351
 II,JST,KST,LST =101  1  1  1 NREC =      8138 INTLOC =12120
 II,JST,KST,LST =102  1  1  1 NREC =      8248 INTLOC =  961
 II,JST,KST,LST =103  1  1  1 NREC =      8376 INTLOC = 8345
 II,JST,KST,LST =104  1  1  1 NREC =      8535 INTLOC = 1978
 II,JST,KST,LST =105  1  1  1 NREC =      8897 INTLOC = 1961
 II,JST,KST,LST =106  1  1  1 NREC =      9368 INTLOC = 5315
 II,JST,KST,LST =107  1  1  1 NREC =     10187 INTLOC = 5299
 II,JST,KST,LST =108  1  1  1 NREC =     10402 INTLOC = 4531
 II,JST,KST,LST =109  1  1  1 NREC =     11014 INTLOC = 3137
 II,JST,KST,LST =110  1  1  1 NREC =     12156 INTLOC =14098
 II,JST,KST,LST =111  1  1  1 NREC =     12291 INTLOC = 8665
 II,JST,KST,LST =112  1  1  1 NREC =     12450 INTLOC =11551
 II,JST,KST,LST =113  1  1  1 NREC =     12652 INTLOC =11935
 II,JST,KST,LST =114  1  1  1 NREC =     13099 INTLOC =  362
 II,JST,KST,LST =115  1  1  1 NREC =     13696 INTLOC = 9732
 II,JST,KST,LST =116  1  1  1 NREC =     14697 INTLOC =11169
 II,JST,KST,LST =117  1  1  1 NREC =     14980 INTLOC = 3136
 II,JST,KST,LST =118  1  1  1 NREC =     15782 INTLOC = 9328
 II,JST,KST,LST =119  1  1  1 NREC =     17208 INTLOC = 7569
 II,JST,KST,LST =120  1  1  1 NREC =     17353 INTLOC =14914
 II,JST,KST,LST =121  1  1  1 NREC =     17526 INTLOC =10160
 II,JST,KST,LST =122  1  1  1 NREC =     17741 INTLOC =10658
 II,JST,KST,LST =123  1  1  1 NREC =     18217 INTLOC = 4071
 II,JST,KST,LST =124  1  1  1 NREC =     18845 INTLOC = 9697
 II,JST,KST,LST =125  1  1  1 NREC =     19907 INTLOC = 4372
 II,JST,KST,LST =126  1  1  1 NREC =     20239 INTLOC = 7689
 II,JST,KST,LST =127  1  1  1 NREC =     21188 INTLOC =11093
 II,JST,KST,LST =128  1  1  1 NREC =     22660 INTLOC = 6292
 II,JST,KST,LST =129  1  1  1 NREC =     22825 INTLOC = 6450
 II,JST,KST,LST =130  1  1  1 NREC =     23022 INTLOC = 6736
 II,JST,KST,LST =131  1  1  1 NREC =     23269 INTLOC = 1050
 II,JST,KST,LST =132  1  1  1 NREC =     23808 INTLOC = 5127
 II,JST,KST,LST =133  1  1  1 NREC =     24525 INTLOC =10633
 II,JST,KST,LST =134  1  1  1 NREC =     25725 INTLOC = 6145
 II,JST,KST,LST =135  1  1  1 NREC =     26111 INTLOC =11426
 II,JST,KST,LST =136  1  1  1 NREC =     27219 INTLOC = 7586
 SCHWARZ INEQUALITY TEST SKIPPED  12870443 INTEGRAL BLOCKS.
 TOTAL NUMBER OF NONZERO TWO-ELECTRON INTEGRALS =           433249660
      28884 INTEGRAL RECORDS WERE STORED ON DISK FILE  8.
  ...... END OF TWO-ELECTRON INTEGRALS .....
 STEP CPU TIME =    37.54 TOTAL CPU TIME =       37.8 (    0.6 MIN)
 TOTAL WALL CLOCK TIME=       38.0 SECONDS, CPU UTILIZATION IS  99.55%

          -----------------
          MCSCF CALCULATION
          -----------------

 ----- NUCLEAR ENERGY ----- =       378.1181902989

          -----------------------     ----------------------------
          GUGA DISTINCT ROW TABLE     WRITTEN BY B.R.BROOKS,P.SAXE
          -----------------------     ----------------------------

      GROUP=C1           NPRT=       2
       FORS=       T   INTACT=       F
       FOCI=       F   MXNINT=  600000
       SOCI=       F   MXNEME=   10000
     IEXCIT=       0

      -CORE-    -INTERNAL-  -EXTERNAL-
     NFZC=   0   NDOC=   1   NEXT=   0
     NMCC=  32   NAOS=   0   NFZV=   0
                 NBOS=   0
                 NALP=   0
                 NVAL=   1

 THE MAXIMUM ELECTRON EXCITATION WILL BE   2

 SYMMETRIES FOR THE  32 CORE,   2 ACTIVE,   0 EXTERNAL MO-S ARE
     CORE= A     A     A     A     A     A     A     A     A     A   
           A     A     A     A     A     A     A     A     A     A   
           A     A     A     A     A     A     A     A     A     A   
           A     A   
   ACTIVE= A     A   
           DOC   VAL 

 MOLECULAR CHARGE          =    1
 NUMBER OF ALPHA ELECTRONS =   33
 NUMBER OF  BETA ELECTRONS =   33

 THE ELECTRONIC STATE IS  1-A   

 THE DISTINCT ROW TABLE HAS         5 ROWS.
  THE WAVEFUNCTION CONTAINS         3 WALKS (CSF-S).


          DETERMINANT CONTRIBUTION TO CSF'S (BETA IS MINUS)
          -------------------------------------------------
 CASE VECTOR =       1
 14

 FOR MS=S-0
 CSF      1: C(  1)= 1.000000 :   33-33
 CASE VECTOR =       2
 23

 FOR MS=S-0
 CSF      2: C(  1)=-0.707107 :  -34 33
             C(  2)= 0.707107 :   34-33
 CASE VECTOR =       3
 41

 FOR MS=S-0
 CSF      3: C(  1)= 1.000000 :   34-34

 TOTAL NUMBER OF INTEGRALS =          9
 NUMBER OF INTEGRALS/GROUP =          9
 NUMBER OF INTEGRAL GROUPS =          1
 MAXIMUM RECORD SIZES ARE     200 FOR UNIT 11      22 FOR UNIT 12
                            30001 FOR UNIT 15   30001 FOR UNIT 16
 ...... END OF -DRT- GENERATION ...... 
 STEP CPU TIME =     0.01 TOTAL CPU TIME =       37.8 (    0.6 MIN)
 TOTAL WALL CLOCK TIME=       38.0 SECONDS, CPU UTILIZATION IS  99.58%
 OPENING FILE DAFL30 WITH      81 LOGICAL RECORDS OF  104976 WORDS
 WITH A MAXIMUM OF        4212 PHYSICAL RECORDS OF    2048 WORDS

          ------------------------------
          CASSCF INTEGRAL TRANSFORMATION
          ------------------------------
 AO INTEGRALS WILL BE READ IN FROM DISK...
 MEMORY WHICH WOULD BE NEEDED FOR SINGLE PASS TRANSFORMATION =   34673701

 ----- CHOOSING TWO STEPS TRANSFORMATION -----
 NUMBER OF WORDS USED      =     556501
 NUMBER OF WORDS AVAILABLE =    1000000

 ----- NUCLEAR REPULSION ENERGY =    378.11819030
 ----- FROZEN CORE ENERGY       =   -757.28151479

 ... SYMMETRY ...           CPU =    0.05
 ... (PQ|RS) -> (PQ|KL) ... CPU =   10.46
 ... (PQ|KL) -> (IJ|KL) ... CPU =    0.01

 NUMBER OF (PQ|KL) INTEGRALS WRITTEN      80182
 NUMBER OF (IJ|KL) INTEGRALS WRITTEN          4
 ..... END OF CAS INTEGRAL TRANSFORMATION .....
 STEP CPU TIME =    10.52 TOTAL CPU TIME =       48.4 (    0.8 MIN)
 TOTAL WALL CLOCK TIME=       48.0 SECONDS, CPU UTILIZATION IS 100.75%

          ------------------------
          GUGA-CI INTEGRAL SORTING
          ------------------------

    630017 WORDS NEEDED TO SORT              9 GUGA INTEGRALS IN MEMORY
   1000000 WORDS ARE AVAILABLE
 CHOOSING IN-MEMORY SORTING...
 IN CORE ALGORITHM SORTED              3 NON-ZERO 1E- INTEGRALS
 IN CORE ALGORITHM SORTED              4 NON-ZERO 2E- INTEGRALS
 ...... END OF INTEGRAL SORTING ...... 
 STEP CPU TIME =     0.00 TOTAL CPU TIME =       48.4 (    0.8 MIN)
 TOTAL WALL CLOCK TIME=       48.0 SECONDS, CPU UTILIZATION IS 100.75%

 -------------------------     ---------------------------------------
 ENERGY MATRIX CALCULATION     WRITTEN BY B.R.BROOKS,W.D.LAIDIG,P.SAXE
 -------------------------     ---------------------------------------

 COMPUTING THE HAMILTONIAN FOR THE         3 CSF-S...

           8 IS THE TOTAL NUMBER OF GENERATED LOOPS
           8 WERE CREATED BY THE LOOP-DRIVEN ALGORITHM
           0 WERE CREATED IMPLICITLY

           8 IS THE TOTAL NUMBER OF PROCESSED LOOPS
           5     DIAGONAL LOOPS ARE STORED ON WORK15 IN     1 BUFFERS OF  10000 ELEMENTS.
           3 OFF DIAGONAL LOOPS ARE STORED ON WORK16 IN     1 BUFFERS OF  10000 ELEMENTS.
 ...... END OF ENERGY MATRIX CALCULATION ...... 
 STEP CPU TIME =     0.01 TOTAL CPU TIME =       48.4 (    0.8 MIN)
 TOTAL WALL CLOCK TIME=       48.0 SECONDS, CPU UTILIZATION IS 100.77%

          -----------------------------------------
          DAVIDSON METHOD CI-MATRIX DIAGONALIZATION
                   WRITTEN BY STEVE ELBERT
          -----------------------------------------
 NUMBER OF STATES REQUESTED =     2
 MAX. NUMB. OF EXPAN. VEC   =    30
 MAX. NUMB. IMPROVED STATES =     2
 MAX. NUMB. OF ITERATIONS   =    50
 CONVERGENCE CRITERION      =    1.0E-05

 CHOOSING TO SOLVE SECULAR EQUATION IN MEMORY
 NUMBER OF WORDS AVAILABLE =    1000000
 NUMBER OF WORDS USED      =      31068
 ENERGY MATRIX BUFFER SIZE =      10000
 SOLUTION FOUND WITH DIRECT METHOD

 STATE #    1  ENERGY =    -380.210578582

      CSF      COEF    OCCUPANCY (IGNORING CORE)
      ---      ----    --------- --------- -----
        1    0.992713  20
        3   -0.120500  02

 STATE #    2  ENERGY =    -380.031050363

      CSF      COEF    OCCUPANCY (IGNORING CORE)
      ---      ----    --------- --------- -----
        2    1.000000  11

 RENORMALIZED DAVIDSON CORRECTION FOR     1-REFERENCE CI.
 C0SQ= 0.985480 EREF=     -380.205831 E-E(REF)=   0.004748 E(Q)=   0.000070
 GIVES A E(SD+Q) ESTIMATE OF     -380.2106485397
 ...... END OF CI-MATRIX DIAGONALIZATION ......
 STEP CPU TIME =     0.00 TOTAL CPU TIME =       48.4 (    0.8 MIN)
 TOTAL WALL CLOCK TIME=       48.0 SECONDS, CPU UTILIZATION IS 100.77%

          -------------------------------------
          2-PARTICLE DENSITY MATRIX CALCULATION
          -------------------------------------
 2 BODY DENSITY IS AN AVERAGE OF  2 STATE(S).
   STATE    WEIGHT          ENERGY
     1    0.500000     -380.2105785820
     2    0.500000     -380.0310503627
            8 -DM2- LOOPS WERE GENERATED
            8 WERE CREATED BY THE LOOP-DRIVEN ALGORITHM
            0 WERE CREATED IMPLICITLY
          1 RECORDS OF LENGTH600000 WRITTEN TO FILE 15
 ...... END OF 2-PARTICLE DENSITY MATRIX CALCULATION ......
 STEP CPU TIME =     0.00 TOTAL CPU TIME =       48.4 (    0.8 MIN)
 TOTAL WALL CLOCK TIME=       48.0 SECONDS, CPU UTILIZATION IS 100.77%

          ----------------------------------
          2-PARTICLE DENSITY MATRIX LABELING
          ----------------------------------
     646993 WORDS NEEDED TO LABEL DM2 MATRIX
          1 RECORDS OF LENGTH600000  READ FROM FILE 15
          1 RECORDS OF LENGTH 15000 WRITTEN TO FILE 16
 ...... END OF 2-PARTICLE DENSITY MATRIX LABELING ......
 STEP CPU TIME =     0.00 TOTAL CPU TIME =       48.4 (    0.8 MIN)
 TOTAL WALL CLOCK TIME=       48.0 SECONDS, CPU UTILIZATION IS 100.77%

          --------------
          -DM2- ORDERING
          --------------
      30010 WORDS NEEDED (   1000000 AVAILABLE) TO ORDER DM2 IN MEMORY
 CHOOSING IN MEMORY ORDERING...
                               1 RECORDS OF LENGTH 15000  READ FROM FILE 16
          6 DM2 VALUES IN      1 RECORDS OF LENGTH 15000 WRITTEN TO FILE 15
 ...... END OF -DM2- ORDERING ...... 
 STEP CPU TIME =     0.00 TOTAL CPU TIME =       48.4 (    0.8 MIN)
 TOTAL WALL CLOCK TIME=       48.0 SECONDS, CPU UTILIZATION IS 100.77%

          --------------------------------------
          APPROXIMATE SECOND-ORDER MCSCF PROGRAM
          --------------------------------------
          PROGRAM WRITTEN BY G.CHABAN, A.MARQUEZ, AND M.DUPUIS

  NUMBER OF WORDS NEEDED     =     839562
  NUMBER AVAILABLE           =    1000000

 ----- GAMMA(IJKL)*(PQ|KL) PRODUCTS ----- CPU TIME =      0.010
 ----- ORBITAL SYMMETRY             ----- CPU TIME =      0.000
 ----- FOCK OPERATORS CONSTRUCTION  ----- CPU TIME =      4.520
 ----- WARNING : CORE-ACTIVE GAP    =    0.29266
 ----- WARNING : ACTIVE-VIRTUAL GAP =    0.33655
     MICIT =   1 ASYMM =    0.025023 ROTMAX =    0.014278
 ----- EFFECTIVE FOCK + ROTATE ORBS ----- CPU TIME =      0.070
     MICIT =   2 ASYMM =    0.019733 ROTMAX =    0.003476
     MICIT =   3 ASYMM =    0.018436 ROTMAX =    0.005623
     MICIT =   4 ASYMM =    0.016326 ROTMAX =    0.006405
     MICIT =   5 ASYMM =    0.013911 ROTMAX =    0.005847
 ..... DONE WITH CASSCF ORBITAL UPDATE .....
 STEP CPU TIME =     5.19 TOTAL CPU TIME =       53.6 (    0.9 MIN)
 TOTAL WALL CLOCK TIME=       54.0 SECONDS, CPU UTILIZATION IS  99.19%

 ITER     TOTAL ENERGY      DEL(E)  LAGRANGIAN ASYMMETRY   SQCDF  MICIT   DAMP
   1     -380.120814472 -0.120814472  0.025023   48   33 1.428E-02  5   0.0000
       ----------START APPROXIMATE SECOND ORDER MCSCF----------
   2     -380.125262681 -0.004448209  0.010146   34   32 1.659E-03  1   0.0000
   3     -380.126080996 -0.000818315  0.003039   48   33 9.030E-04  1   0.0000
   4     -380.126240939 -0.000159942  0.001746   48   33 7.822E-05  1   0.0000
   5     -380.126271091 -0.000030152  0.000659   34   32 5.826E-05  1   0.0000
   6     -380.126279811 -0.000008720  0.000357   71   31 2.990E-06  1   0.0000
   7     -380.126280776 -0.000000966  0.000082   75   32 2.415E-07  1   0.0000
   8     -380.126280884 -0.000000108  0.000023   34   32 4.657E-08  1   0.0000
   9     -380.126280896 -0.000000012  0.000007   46   32 3.007E-09  1   0.0000
  10     -380.126280897 -0.000000001  0.000004   48   31 6.644E-10  1   0.0000

          --------------------
          LAGRANGIAN CONVERGED
          --------------------

 FINAL MCSCF ENERGY IS     -380.1262808973 AFTER  10 ITERATIONS

 -MCCI- BASED ON OPTIMIZED ORBITALS
 ----------------------------------

 PLEASE NOTE: IF THE ACTIVE ORBITALS ARE CANONICALIZED BELOW,
 THE FOLLOWING CI EXPANSION COEFFICIENTS AND THE DENSITY DO NOT
 CORRESPOND TO THE PRINTED ORBITALS.  THE PRINTED EXPANSIONS MATCH
 THE ORBITALS USED DURING THE LAST ITERATION.  IF YOU WISH TO SEE
 CI EXPANSIONS BASED ON THE CANONICAL (OR NATURAL) ORBITALS, YOU
 MUST RUN A CI CALCULATION WITH THAT ORBITAL CHOICE READ IN $VEC.

 STATE #    1  ENERGY =    -380.203142040

      CSF      COEF    OCCUPANCY (IGNORING CORE)
      ---      ----    --------- --------- -----
        1    0.994742  20
        2    0.000000  11
        3   -0.102408  02

 STATE #    2  ENERGY =    -380.049419754

      CSF      COEF    OCCUPANCY (IGNORING CORE)
      ---      ----    --------- --------- -----
        1    0.000000  20
        2    1.000000  11
        3    0.000000  02

 DENSITY MATRIX OVER ACTIVE MO-S

             1           2

    1    1.4895126
    2    0.0000001   0.5104874

 FORMING THE "STANDARD FOCK OPERATOR" USING INTEGRALS FROM DISK...
    32 FILLED,    2 ACTIVE, AND  272 VIRTUAL ORBITALS  WILL BE CANONICALIZED

          ----------------------
          MCSCF NATURAL ORBITALS
          ----------------------

                      1          2          3          4          5

                  -15.7504   -15.7504   -11.4593   -11.4593   -11.4022

    1  H  1  S    0.000000   0.000012   0.000000   0.000034  -0.000042
    2  H  1  S    0.000022   0.002791  -0.000001  -0.001466   0.003638
    3  H  1  X    0.000000   0.000000   0.000000   0.000000   0.000000
    4  H  1  Y   -0.000014   0.000000   0.000045   0.000000   0.000000
    5  H  1  Z    0.000000   0.000015   0.000000  -0.000037  -0.000114
    6  H  1  S    0.000001   0.000100   0.000002   0.002554   0.000066
    7  H  1  X    0.000000   0.000000   0.000000   0.000000   0.000000
    8  H  1  Y    0.000467  -0.000004   0.002326  -0.000002  -0.000001
    9  H  1  Z   -0.000006  -0.000734   0.000000   0.000257  -0.001616
   10  H  2  S   -0.000016  -0.000010  -0.000024  -0.000003   0.000160
   11  H  2  S   -0.000954  -0.002633   0.000945   0.001975  -0.000160
   12  H  2  X    0.000000   0.000000   0.000000   0.000000   0.000000
   13  H  2  Y    0.000058   0.000025  -0.000006  -0.000034   0.000078
   14  H  2  Z   -0.000024  -0.000018   0.000012   0.000022  -0.000063
   15  H  2  S    0.002485   0.000884   0.001314   0.001252  -0.002931
   16  H  2  X    0.000000   0.000000   0.000000   0.000000   0.000000
   17  H  2  Y   -0.000408  -0.000048   0.003173   0.000699  -0.000290
   18  H  2  Z   -0.000086  -0.000602   0.000185   0.000556   0.000478
   19  H  3  S    0.000016  -0.000011   0.000024  -0.000003   0.000160
   20  H  3  S    0.000913  -0.002647  -0.000942   0.001976  -0.000164
   21  H  3  X    0.000000   0.000000   0.000000   0.000000   0.000000
   22  H  3  Y    0.000058  -0.000026  -0.000006   0.000034  -0.000078
   23  H  3  Z    0.000023  -0.000019  -0.000012   0.000022  -0.000063
   24  H  3  S   -0.002471   0.000923  -0.001313   0.001253  -0.002940
   25  H  3  X    0.000000   0.000000   0.000000   0.000000   0.000000
   26  H  3  Y   -0.000407   0.000054   0.003172  -0.000703   0.000289
   27  H  3  Z    0.000076  -0.000603  -0.000184   0.000556   0.000478
   28  H  4  S   -0.000067  -0.000059   0.000071   0.000099  -0.000003
   29  H  4  S   -0.003169  -0.001248   0.001951   0.002879  -0.001044
   30  H  4  X    0.000000   0.000000   0.000000   0.000000   0.000000
   31  H  4  Y   -0.000005   0.000001   0.000049   0.000018   0.000008
   32  H  4  Z   -0.000005   0.000004  -0.000096  -0.000103  -0.000097
   33  H  4  S   -0.000150  -0.000941   0.000373  -0.000080   0.002342
   34  H  4  X    0.000000   0.000000   0.000000   0.000000   0.000000
   35  H  4  Y    0.000405   0.000349   0.002015   0.001003  -0.000423
   36  H  4  Z    0.000747   0.000285  -0.000831  -0.001026  -0.000099
   37  H  5  S    0.000066  -0.000060  -0.000071   0.000099  -0.000003
   38  H  5  S    0.003149  -0.001298  -0.001947   0.002882  -0.001044
   39  H  5  X    0.000000   0.000000   0.000000   0.000000   0.000000
   40  H  5  Y   -0.000005  -0.000001   0.000049  -0.000018  -0.000008
   41  H  5  Z    0.000006   0.000004   0.000096  -0.000103  -0.000097
   42  H  5  S    0.000135  -0.000943  -0.000373  -0.000080   0.002342
   43  H  5  X    0.000000   0.000000   0.000000   0.000000   0.000000
   44  H  5  Y    0.000400  -0.000355   0.002014  -0.001006   0.000423
   45  H  5  Z   -0.000743   0.000297   0.000829  -0.001027  -0.000099
   46  H  6  S   -0.000190  -0.000188   0.000286   0.000292  -0.000049
   47  H  6  S    0.002720   0.002309   0.001630   0.002999   0.006125
   48  H  6  X    0.000000   0.000000   0.000000   0.000000   0.000000
   49  H  6  Y   -0.000026  -0.000025  -0.000002  -0.000019   0.000096
   50  H  6  Z   -0.000104  -0.000093  -0.000050  -0.000071  -0.000058
   51  H  6  S    0.000025  -0.000560  -0.002175  -0.000692   0.001764
   52  H  6  X    0.000000   0.000000   0.000000   0.000000   0.000000
   53  H  6  Y    0.000203   0.000253   0.001769   0.001386  -0.000164
   54  H  6  Z    0.000871   0.000809   0.000694   0.001009   0.001884
   55  H  7  S    0.000187  -0.000191  -0.000286   0.000292  -0.000049
   56  H  7  S   -0.002683   0.002351  -0.001626   0.003001   0.006128
   57  H  7  X    0.000000   0.000000   0.000000   0.000000   0.000000
   58  H  7  Y   -0.000026   0.000026  -0.000002   0.000019  -0.000096
   59  H  7  Z    0.000102  -0.000094   0.000050  -0.000071  -0.000058
   60  H  7  S   -0.000034  -0.000560   0.002174  -0.000695   0.001766
   61  H  7  X    0.000000   0.000000   0.000000   0.000000   0.000000
   62  H  7  Y    0.000199  -0.000256   0.001767  -0.001389   0.000164
   63  H  7  Z   -0.000859   0.000823  -0.000692   0.001010   0.001885
   64  H  8  S    0.000166   0.000141  -0.000141  -0.000138  -0.000011
   65  H  8  S    0.002584   0.001993  -0.000923  -0.000904  -0.001873
   66  H  8  X    0.000000   0.000000   0.000000   0.000000   0.000000
   67  H  8  Y    0.000013   0.000015   0.000005   0.000001  -0.000041
   68  H  8  Z    0.000196   0.000205  -0.000151  -0.000176  -0.000034
   69  H  8  S   -0.000656  -0.000445  -0.000745  -0.000654  -0.000160
   70  H  8  X    0.000000   0.000000   0.000000   0.000000   0.000000
   71  H  8  Y   -0.000171  -0.000112   0.000430   0.000396   0.000266
   72  H  8  Z   -0.000720  -0.000624   0.000141   0.000233   0.000602
   73  H  9  S   -0.000163   0.000143   0.000140  -0.000138  -0.000011
   74  H  9  S   -0.002552   0.002033   0.000922  -0.000906  -0.001875
   75  H  9  X    0.000000   0.000000   0.000000   0.000000   0.000000
   76  H  9  Y    0.000012  -0.000016   0.000005  -0.000001   0.000041
   77  H  9  Z   -0.000193   0.000208   0.000151  -0.000176  -0.000034
   78  H  9  S    0.000649  -0.000455   0.000744  -0.000655  -0.000159
   79  H  9  X    0.000000   0.000000   0.000000   0.000000   0.000000
   80  H  9  Y   -0.000169   0.000115   0.000430  -0.000397  -0.000266
   81  H  9  Z    0.000710  -0.000635  -0.000141   0.000233   0.000602
   82  H 10  S    0.000113   0.000094  -0.000158  -0.000171   0.000001
   83  H 10  S    0.003056   0.002677   0.000107   0.000578   0.000199
   84  H 10  X    0.000000   0.000000   0.000000   0.000000   0.000000
   85  H 10  Y    0.000148   0.000162  -0.000137  -0.000141   0.000012
   86  H 10  Z   -0.000157  -0.000156   0.000096   0.000103   0.000027
   87  H 10  S   -0.000628  -0.000338  -0.000538  -0.000744   0.000040
   88  H 10  X    0.000000   0.000000   0.000000   0.000000   0.000000
   89  H 10  Y   -0.000683  -0.000685   0.000010  -0.000146   0.000005
   90  H 10  Z    0.000595   0.000526  -0.000003   0.000066   0.000066
   91  H 11  S   -0.000112   0.000096   0.000158  -0.000171   0.000001
   92  H 11  S   -0.003014   0.002724  -0.000107   0.000578   0.000199
   93  H 11  X    0.000000   0.000000   0.000000   0.000000   0.000000
   94  H 11  Y    0.000145  -0.000164  -0.000137   0.000141  -0.000012
   95  H 11  Z    0.000155  -0.000158  -0.000096   0.000103   0.000027
   96  H 11  S    0.000622  -0.000348   0.000537  -0.000744   0.000040
   97  H 11  X    0.000000   0.000000   0.000000   0.000000   0.000000
   98  H 11  Y   -0.000672   0.000696   0.000010   0.000146  -0.000005
   99  H 11  Z   -0.000587   0.000536   0.000004   0.000066   0.000066
  100  C 12  S    0.000000  -0.000014   0.000000  -0.000200   0.027627
  101  C 12  S    0.000000  -0.000018   0.000000  -0.000339   0.000003
  102  C 12  S    0.000019   0.002377   0.000012   0.016922   0.012567
  103  C 12  X    0.000000   0.000000   0.000000   0.000000   0.000000
  104  C 12  Y    0.000024   0.000000  -0.000120   0.000000   0.000000
  105  C 12  Z    0.000000  -0.000017   0.000000   0.000076  -0.000058
  106  C 12  X    0.000000   0.000000   0.000000   0.000000   0.000000
  107  C 12  Y    0.001751  -0.000014   0.060518  -0.000042  -0.000020
  108  C 12  Z   -0.000018  -0.002327  -0.000005  -0.007561  -0.010273
  109  C 12 XX    0.000000  -0.000018   0.000000   0.000038   0.000215
  110  C 12 YY    0.000000   0.000002   0.000000  -0.000010  -0.000052
  111  C 12 ZZ    0.000000   0.000016   0.000000  -0.000028  -0.000163
  112  C 12 XY    0.000000   0.000000   0.000000   0.000000   0.000000
  113  C 12 XZ    0.000000   0.000000   0.000000   0.000000   0.000000
  114  C 12 YZ   -0.000034   0.000000  -0.000049   0.000000   0.000000
  115  C 12  S   -0.000086  -0.010944   0.000010   0.013962   0.028275
  116  C 12  X    0.000000   0.000000   0.000000   0.000000   0.000000
  117  C 12  Y   -0.007557   0.000059   0.013505  -0.000009  -0.000010
  118  C 12  Z    0.000016   0.001978  -0.000001  -0.001687  -0.004645
  119  C 12 XX   -0.000001  -0.000119   0.000000   0.000161  -0.001025
  120  C 12 YY    0.000003   0.000364  -0.000002  -0.002621  -0.001257
  121  C 12 ZZ   -0.000002  -0.000245   0.000002   0.002459   0.002282
  122  C 12 XY    0.000000   0.000000   0.000000   0.000000   0.000000
  123  C 12 XZ    0.000000   0.000000   0.000000   0.000000   0.000000
  124  C 12 YZ   -0.000636   0.000005  -0.016567   0.000011   0.000005
  125  C 13  S    0.000007   0.000052  -0.000046  -0.000278   0.709187
  126  C 13  S    0.000013   0.000091  -0.000118  -0.000480   0.005391
  127  C 13  S    0.002736   0.001989  -0.007167   0.017637  -0.032136
  128  C 13  X    0.000000   0.000000   0.000000   0.000000   0.000000
  129  C 13  Y    0.000017   0.000021  -0.000044  -0.000025   0.000123
  130  C 13  Z   -0.000003   0.000002   0.000004  -0.000030  -0.000004
  131  C 13  X    0.000000   0.000000   0.000000   0.000000   0.000000
  132  C 13  Y    0.002641   0.000785   0.057038   0.017038  -0.008493
  133  C 13  Z    0.001748   0.000614  -0.004150   0.008399  -0.002384
  134  C 13 XX    0.000016   0.000018  -0.000057  -0.000085  -0.000535
  135  C 13 YY   -0.000055  -0.000059   0.000106   0.000138   0.000462
  136  C 13 ZZ    0.000039   0.000041  -0.000049  -0.000053   0.000074
  137  C 13 XY    0.000000   0.000000   0.000000   0.000000   0.000000
  138  C 13 XZ    0.000000   0.000000   0.000000   0.000000   0.000000
  139  C 13 YZ    0.000043   0.000037   0.000029  -0.000030  -0.000027
  140  C 13  S    0.003671   0.009598  -0.004051   0.004664  -0.042277
  141  C 13  X    0.000000   0.000000   0.000000   0.000000   0.000000
  142  C 13  Y   -0.003414  -0.001141   0.004244   0.006169  -0.003792
  143  C 13  Z   -0.001759   0.000997   0.000081   0.000153  -0.006173
  144  C 13 XX   -0.000121   0.000141  -0.000240  -0.000200   0.003141
  145  C 13 YY   -0.000572  -0.001080   0.001911  -0.001182  -0.007281
  146  C 13 ZZ    0.000693   0.000939  -0.001671   0.001382   0.004140
  147  C 13 XY    0.000000   0.000000   0.000000   0.000000   0.000000
  148  C 13 XZ    0.000000   0.000000   0.000000   0.000000   0.000000
  149  C 13 YZ    0.001460   0.000978   0.016100   0.004193  -0.000617
  150  C 14  S   -0.000007   0.000053   0.000046  -0.000278   0.709805
  151  C 14  S   -0.000012   0.000091   0.000118  -0.000481   0.005396
  152  C 14  S   -0.002705   0.002032   0.007191   0.017627  -0.032176
  153  C 14  X    0.000000   0.000000   0.000000   0.000000   0.000000
  154  C 14  Y    0.000016  -0.000021  -0.000044   0.000025  -0.000123
  155  C 14  Z    0.000003   0.000002  -0.000004  -0.000030  -0.000004
  156  C 14  X    0.000000   0.000000   0.000000   0.000000   0.000000
  157  C 14  Y    0.002628  -0.000826   0.057014  -0.017117   0.008472
  158  C 14  Z   -0.001738   0.000641   0.004161   0.008393  -0.002395
  159  C 14 XX   -0.000016   0.000018   0.000057  -0.000085  -0.000536
  160  C 14 YY    0.000054  -0.000060  -0.000106   0.000138   0.000462
  161  C 14 ZZ   -0.000038   0.000041   0.000049  -0.000053   0.000074
  162  C 14 XY    0.000000   0.000000   0.000000   0.000000   0.000000
  163  C 14 XZ    0.000000   0.000000   0.000000   0.000000   0.000000
  164  C 14 YZ    0.000042  -0.000037   0.000029   0.000030   0.000027
  165  C 14  S   -0.003520   0.009654   0.004058   0.004658  -0.042328
  166  C 14  X    0.000000   0.000000   0.000000   0.000000   0.000000
  167  C 14  Y   -0.003396   0.001195   0.004236  -0.006175   0.003783
  168  C 14  Z    0.001775   0.000969  -0.000081   0.000153  -0.006185
  169  C 14 XX    0.000123   0.000139   0.000240  -0.000200   0.003144
  170  C 14 YY    0.000555  -0.001089  -0.001913  -0.001179  -0.007286
  171  C 14 ZZ   -0.000678   0.000950   0.001673   0.001379   0.004142
  172  C 14 XY    0.000000   0.000000   0.000000   0.000000   0.000000
  173  C 14 XZ    0.000000   0.000000   0.000000   0.000000   0.000000
  174  C 14 YZ    0.001444  -0.001001   0.016094  -0.004215   0.000611
  175  C 15  S   -0.000001  -0.000030   0.005258   0.005102   0.013814
  176  C 15  S   -0.000014  -0.000060   0.000214  -0.000028  -0.000079
  177  C 15  S    0.003091   0.005962  -0.011943   0.008213   0.010095
  178  C 15  X    0.000000   0.000000   0.000000   0.000000   0.000000
  179  C 15  Y   -0.000069  -0.000078   0.000082   0.000088  -0.000050
  180  C 15  Z    0.000019   0.000019  -0.000050  -0.000030   0.000008
  181  C 15  X    0.000000   0.000000   0.000000   0.000000   0.000000
  182  C 15  Y    0.004365   0.003386   0.049568   0.029823  -0.017273
  183  C 15  Z   -0.001259  -0.003050  -0.001293  -0.008156  -0.005567
  184  C 15 XX    0.000008  -0.000025   0.000119   0.000109   0.000136
  185  C 15 YY   -0.000065  -0.000040   0.000012   0.000037  -0.000030
  186  C 15 ZZ    0.000057   0.000065  -0.000130  -0.000146  -0.000106
  187  C 15 XY    0.000000   0.000000   0.000000   0.000000   0.000000
[...]
             95  H 11  Z      0.01726     0.03625
             96  H 11  S     -0.00695     0.01415
             97  H 11  X      0.01142     0.07800
             98  H 11  Y     -0.01723     0.05771
             99  H 11  Z     -0.03010     0.05690
            100  C 12  S      2.00871     1.80543
            101  C 12  S      0.65438     0.43600
            102  C 12  S      0.30428     0.17327
            103  C 12  X      0.56456     0.46519
            104  C 12  Y      0.75083     0.63264
            105  C 12  Z      0.72499     0.61098
            106  C 12  X      0.43400     0.27671
            107  C 12  Y     -0.42501     0.22370
            108  C 12  Z      0.22820     0.28143
            109  C 12 XX      0.02509     0.05488
            110  C 12 YY      0.01326     0.16506
            111  C 12 ZZ      0.01343     0.14760
            112  C 12 XY      0.00508     0.02222
            113  C 12 XZ      0.02587     0.00660
            114  C 12 YZ      0.00000     0.05449
            115  C 12  S     -0.40655     0.04359
            116  C 12  X      0.02024     0.02933
            117  C 12  Y      0.15791     0.04434
            118  C 12  Z      0.21545     0.03147
            119  C 12 XX     -0.17033     0.00684
            120  C 12 YY     -0.02379     0.13641
            121  C 12 ZZ      0.00443     0.12725
            122  C 12 XY      0.00194     0.10285
            123  C 12 XZ     -0.05354     0.01878
            124  C 12 YZ      0.00000     0.13908
            125  C 13  S      2.00852     1.80649
            126  C 13  S      0.67132     0.44576
            127  C 13  S      0.57065     0.17299
            128  C 13  X      0.45361     0.37188
            129  C 13  Y      0.78325     0.65457
            130  C 13  Z      0.73581     0.61842
            131  C 13  X      0.34636     0.24507
            132  C 13  Y     -0.24513     0.22249
            133  C 13  Z      0.26584     0.27893
            134  C 13 XX      0.02593     0.05556
            135  C 13 YY      0.01463     0.16901
            136  C 13 ZZ      0.02449     0.14539
            137  C 13 XY      0.00402     0.03822
            138  C 13 XZ      0.02443     0.00600
            139  C 13 YZ      0.00000     0.05003
            140  C 13  S     -0.47166     0.04348
            141  C 13  X     -0.00545     0.02870
            142  C 13  Y      0.20864     0.04594
            143  C 13  Z      0.19030     0.03165
            144  C 13 XX     -0.12058     0.00666
            145  C 13 YY      0.01995     0.14513
            146  C 13 ZZ      0.02539     0.12013
            147  C 13 XY      0.00000     0.16254
            148  C 13 XZ      0.12315     0.01876
            149  C 13 YZ      0.00000     0.14749
            150  C 14  S      2.00852     1.80649
            151  C 14  S      0.67132     0.44576
            152  C 14  S      0.57065     0.17299
            153  C 14  X      0.45361     0.37188
            154  C 14  Y      0.78325     0.65457
            155  C 14  Z      0.73581     0.61842
            156  C 14  X      0.34636     0.24507
            157  C 14  Y     -0.24513     0.22249
            158  C 14  Z      0.26584     0.27893
            159  C 14 XX      0.02593     0.05556
            160  C 14 YY      0.01463     0.16901
            161  C 14 ZZ      0.02449     0.14539
            162  C 14 XY      0.00402     0.03822
            163  C 14 XZ      0.02443     0.00600
            164  C 14 YZ      0.00000     0.05003
            165  C 14  S     -0.47166     0.04348
            166  C 14  X     -0.00545     0.02870
            167  C 14  Y      0.20864     0.04594
            168  C 14  Z      0.19030     0.03165
            169  C 14 XX     -0.12058     0.00666
            170  C 14 YY      0.01995     0.14513
            171  C 14 ZZ      0.02539     0.12013
            172  C 14 XY      0.00000     0.16254
            173  C 14 XZ      0.12315     0.01876
            174  C 14 YZ      0.00000     0.14749
            175  C 15  S      2.00878     1.80506
            176  C 15  S      0.64757     0.43269
            177  C 15  S      0.13601     0.17447
            178  C 15  X      0.60546     0.49951
            179  C 15  Y      0.73943     0.62446
            180  C 15  Z      0.71827     0.60540
            181  C 15  X      0.45679     0.29114
            182  C 15  Y      0.00232     0.22380
            183  C 15  Z      0.13387     0.28298
            184  C 15 XX      0.02313     0.05472
            185  C 15 YY      0.01213     0.16301
            186  C 15 ZZ      0.01123     0.14616
            187  C 15 XY      0.00572     0.01878
            188  C 15 XZ      0.02617     0.00715
            189  C 15 YZ      0.00000     0.05597
            190  C 15  S     -0.43716     0.04385
            191  C 15  X      0.01499     0.02934
            192  C 15  Y      0.15019     0.04046
            193  C 15  Z      0.14604     0.03162
            194  C 15 XX     -0.12901     0.00694
            195  C 15 YY     -0.00120     0.12496
            196  C 15 ZZ      0.02481     0.12472
            197  C 15 XY     -0.00022     0.09282
            198  C 15 XZ     -0.14580     0.01941
            199  C 15 YZ      0.00000     0.13926
            200  C 16  S      2.00878     1.80506
            201  C 16  S      0.64757     0.43269
            202  C 16  S      0.13601     0.17447
            203  C 16  X      0.60546     0.49951
            204  C 16  Y      0.73943     0.62446
            205  C 16  Z      0.71827     0.60540
            206  C 16  X      0.45679     0.29114
            207  C 16  Y      0.00231     0.22380
            208  C 16  Z      0.13387     0.28298
            209  C 16 XX      0.02313     0.05472
            210  C 16 YY      0.01213     0.16301
            211  C 16 ZZ      0.01123     0.14616
            212  C 16 XY      0.00572     0.01878
            213  C 16 XZ      0.02617     0.00715
            214  C 16 YZ      0.00000     0.05597
            215  C 16  S     -0.43716     0.04385
            216  C 16  X      0.01499     0.02934
            217  C 16  Y      0.15019     0.04046
            218  C 16  Z      0.14604     0.03162
            219  C 16 XX     -0.12901     0.00694
            220  C 16 YY     -0.00120     0.12496
            221  C 16 ZZ      0.02481     0.12472
            222  C 16 XY     -0.00022     0.09282
            223  C 16 XZ     -0.14580     0.01941
            224  C 16 YZ      0.00000     0.13926
            225  C 17  S      2.00809     1.79283
            226  C 17  S      0.67744     0.44855
            227  C 17  S      0.61043     0.17065
            228  C 17  X      0.42822     0.34707
            229  C 17  Y      0.74859     0.62776
            230  C 17  Z      0.76450     0.63393
            231  C 17  X      0.24145     0.22684
            232  C 17  Y     -0.05511     0.20374
            233  C 17  Z     -0.18771     0.26967
            234  C 17 XX      0.02942     0.05234
            235  C 17 YY      0.02133     0.17937
            236  C 17 ZZ      0.04100     0.15266
            237  C 17 XY      0.00546     0.07012
            238  C 17 XZ      0.03086     0.00777
            239  C 17 YZ      0.00000     0.06384
            240  C 17  S     -0.16270     0.04222
            241  C 17  X      0.02038     0.02522
            242  C 17  Y      0.01387     0.03628
            243  C 17  Z      0.05170     0.02693
            244  C 17 XX     -0.11073     0.00624
            245  C 17 YY     -0.00603     0.15098
            246  C 17 ZZ      0.01718     0.12183
            247  C 17 XY     -0.01074     0.18580
            248  C 17 XZ     -0.06334     0.01945
            249  C 17 YZ      0.00000     0.14416
            250  C 18  S      2.00809     1.79283
            251  C 18  S      0.67744     0.44855
            252  C 18  S      0.61043     0.17065
            253  C 18  X      0.42822     0.34707
            254  C 18  Y      0.74859     0.62776
            255  C 18  Z      0.76450     0.63393
            256  C 18  X      0.24145     0.22684
            257  C 18  Y     -0.05511     0.20374
            258  C 18  Z     -0.18771     0.26967
            259  C 18 XX      0.02942     0.05234
            260  C 18 YY      0.02133     0.17937
            261  C 18 ZZ      0.04100     0.15266
            262  C 18 XY      0.00546     0.07012
            263  C 18 XZ      0.03086     0.00777
            264  C 18 YZ      0.00000     0.06384
            265  C 18  S     -0.16270     0.04222
            266  C 18  X      0.02038     0.02522
            267  C 18  Y      0.01387     0.03628
            268  C 18  Z      0.05170     0.02693
            269  C 18 XX     -0.11073     0.00624
            270  C 18 YY     -0.00603     0.15098
            271  C 18 ZZ      0.01718     0.12183
            272  C 18 XY     -0.01074     0.18580
            273  C 18 XZ     -0.06334     0.01945
            274  C 18 YZ      0.00000     0.14416
            275  N 19  S      2.00570     1.84271
            276  N 19  S      0.71323     0.48457
            277  N 19  S      0.77843     0.24170
            278  N 19  X      0.90587     0.82238
            279  N 19  Y      0.77169     0.66932
            280  N 19  Z      0.77105     0.66584
            281  N 19  X      0.73602     0.46071
            282  N 19  Y      0.28383     0.36213
            283  N 19  Z      0.29979     0.38975
            284  N 19 XX      0.00851     0.08653
            285  N 19 YY      0.00534     0.15184
            286  N 19 ZZ      0.00379     0.14190
            287  N 19 XY      0.00044     0.00507
            288  N 19 XZ      0.01205     0.00066
            289  N 19 YZ      0.00000     0.02281
            290  N 19  S     -0.08470     0.05039
            291  N 19  X      0.03782     0.03879
            292  N 19  Y      0.03303     0.04584
            293  N 19  Z     -0.00405     0.03971
            294  N 19 XX     -0.01599     0.01055
            295  N 19 YY      0.00260     0.09832
            296  N 19 ZZ      0.01550     0.06979
            297  N 19 XY      0.00141     0.04519
            298  N 19 XZ     -0.01836     0.00494
            299  N 19 YZ      0.00000     0.11176
            300  N 20  S      2.00570     1.84271
            301  N 20  S      0.71323     0.48457
            302  N 20  S      0.77843     0.24170
            303  N 20  X      0.90587     0.82238
            304  N 20  Y      0.77169     0.66932
            305  N 20  Z      0.77105     0.66584
            306  N 20  X      0.73602     0.46071
            307  N 20  Y      0.28383     0.36213
            308  N 20  Z      0.29979     0.38975
            309  N 20 XX      0.00851     0.08653
            310  N 20 YY      0.00534     0.15184
            311  N 20 ZZ      0.00379     0.14190
            312  N 20 XY      0.00044     0.00507
            313  N 20 XZ      0.01205     0.00066
            314  N 20 YZ      0.00000     0.02281
            315  N 20  S     -0.08470     0.05039
            316  N 20  X      0.03782     0.03879
            317  N 20  Y      0.03303     0.04584
            318  N 20  Z     -0.00405     0.03971
            319  N 20 XX     -0.01599     0.01055
            320  N 20 YY      0.00260     0.09832
            321  N 20 ZZ      0.01550     0.06979
            322  N 20 XY      0.00141     0.04519
            323  N 20 XZ     -0.01836     0.00494
            324  N 20 YZ      0.00000     0.11176

          ----- MULLIKEN ATOMIC OVERLAP POPULATIONS -----
          (OFF-DIAGONAL ELEMENTS NEED TO BE MULTIPLIED BY 2)

             1           2           3           4           5

    1    1.9990937
    2    0.0835327   2.0402005
    3    0.0835324  -0.1711116   2.0402007
    4   -0.1000640   0.0690942  -0.0135907   1.8599275
    5   -0.1000642  -0.0135907   0.0690944   0.0091099   1.8599282
    6   -0.0031004  -0.0827816   0.0112423   0.0390194   0.0003650
    7   -0.0031004   0.0112424  -0.0827817   0.0003651   0.0390194
    8    0.0001271  -0.0018530   0.0003177   0.0264087  -0.0001385
    9    0.0001271   0.0003177  -0.0018530  -0.0001385   0.0264087
   10    0.0003237   0.0012519  -0.0003535  -0.0059946  -0.0000172
   11    0.0003237  -0.0003535   0.0012519  -0.0000172  -0.0059946
   12   -1.0466375   0.3553109   0.3553097  -0.0081614  -0.0081616
   13    0.1829834  -0.5719669   0.0247881   0.9188411   0.1078837
   14    0.1829842   0.0247879  -0.5719662   0.1078836   0.9188408
   15    0.0681862  -0.2733514   0.1108557  -0.8523534  -0.0116507
   16    0.0681872   0.1108558  -0.2733501  -0.0116508  -0.8523536
   17    0.0587191  -0.0497075   0.0063095  -0.4524344   0.0002997
   18    0.0587191   0.0063096  -0.0497084   0.0002997  -0.4524345
   19    0.0059012   0.0287051  -0.0020987  -0.0088517  -0.0002597
   20    0.0059012  -0.0020987   0.0287051  -0.0002597  -0.0088519

             6           7           8           9          10

    6    1.3480946
    7   -0.0002372   1.3480941
    8    0.0167212  -0.0000072   0.8327867
    9   -0.0000072   0.0167212   0.0000017   0.8327865
   10   -0.0292016   0.0000106  -0.1797376   0.0000004   0.8179992
   11    0.0000106  -0.0292015   0.0000004  -0.1797375  -0.0000005
   12    0.0315306   0.0315302   0.0097166   0.0097165   0.0009527
   13   -0.1075796   0.0095629  -0.0605945  -0.0012646  -0.0143691
   14    0.0095628  -0.1075793  -0.0012646  -0.0605946  -0.0013051
   15    0.1851396  -0.0002210   0.1825589  -0.0000760  -0.0020024
   16   -0.0002210   0.1851389  -0.0000760   0.1825588   0.0002697
   17   -0.0149081  -0.0002147  -0.2187578   0.0000658  -0.0784687
   18   -0.0002147  -0.0149068   0.0000658  -0.2187575  -0.0000339
   19   -0.0169536   0.0000484   0.4219652   0.0000001   0.4445390
   20    0.0000484  -0.0169540   0.0000001   0.4219650   0.0000002

            11          12          13          14          15

   11    0.8179988
   12    0.0009526  13.8049465
   13   -0.0013051  -3.6531039  12.1416482
   14   -0.0143688  -3.6531014   0.0828350  12.1416457
   15    0.0002697  -0.4576062  -2.8003701  -0.6002535  10.9267962
   16   -0.0020028  -0.4576045  -0.6002537  -2.8003700  -0.0538357
   17   -0.0000339  -0.1053983   0.0194640   0.0094162  -1.1572958
   18   -0.0784685  -0.1053978   0.0094160   0.0194625   0.0303170
   19    0.0000002  -0.0156775  -0.0411189   0.0079794  -0.1452994
   20    0.4445392  -0.0156774   0.0079794  -0.0411191  -0.0002833

            16          17          18          19          20

   16   10.9267906
   17    0.0303170   6.7615086
   18   -1.1572938  -0.0098939   6.7615088
   19   -0.0002833   0.3141836   0.0004040   6.2698351
   20   -0.1452988   0.0004040   0.3141830  -0.0000095   6.2698356

          TOTAL MULLIKEN AND LOWDIN ATOMIC POPULATIONS
       ATOM         MULL.POP.    CHARGE          LOW.POP.     CHARGE
    1 H             1.545675   -0.545675         0.924559    0.075441
    2 H             1.564794   -0.564794         0.920412    0.079588
    3 H             1.564793   -0.564793         0.920412    0.079588
    4 H             1.577433   -0.577433         0.926368    0.073632
    5 H             1.577433   -0.577433         0.926368    0.073632
    6 H             1.386530   -0.386530         0.903640    0.096360
    7 H             1.386529   -0.386529         0.903640    0.096360
    8 H             1.028241   -0.028241         0.916269    0.083731
    9 H             1.028241   -0.028241         0.916269    0.083731
   10 H             0.953863    0.046137         0.913499    0.086501
   11 H             0.953863    0.046137         0.913499    0.086501
   12 C             5.073439    0.926561         6.036126   -0.036126
   13 C             5.653475    0.346525         6.031315   -0.031315
   14 C             5.653475    0.346525         6.031315   -0.031315
   15 C             5.149524    0.850476         6.038670   -0.038670
   16 C             5.149524    0.850476         6.038670   -0.038670
   17 C             5.113575    0.886425         6.006271   -0.006271
   18 C             5.113576    0.886424         6.006271   -0.006271
   19 N             7.263009   -0.263009         6.863214    0.136786
   20 N             7.263009   -0.263009         6.863214    0.136786

          MULLIKEN SPHERICAL HARMONIC POPULATIONS
       ATOM           S       P       D      F      G      H      I    TOTAL
    1 H             1.53    0.01    0.00   0.00   0.00   0.00   0.00    1.55
    2 H             1.57    0.00    0.00   0.00   0.00   0.00   0.00    1.56
    3 H             1.57    0.00    0.00   0.00   0.00   0.00   0.00    1.56
    4 H             1.56    0.02    0.00   0.00   0.00   0.00   0.00    1.58
    5 H             1.56    0.02    0.00   0.00   0.00   0.00   0.00    1.58
    6 H             1.37    0.02    0.00   0.00   0.00   0.00   0.00    1.39
    7 H             1.37    0.02    0.00   0.00   0.00   0.00   0.00    1.39
    8 H             0.99    0.04    0.00   0.00   0.00   0.00   0.00    1.03
    9 H             0.99    0.04    0.00   0.00   0.00   0.00   0.00    1.03
   10 H             0.93    0.02    0.00   0.00   0.00   0.00   0.00    0.95
   11 H             0.93    0.02    0.00   0.00   0.00   0.00   0.00    0.95
   12 C             2.56    2.67   -0.16   0.00   0.00   0.00   0.00    5.07
   13 C             2.78    2.73    0.14   0.00   0.00   0.00   0.00    5.65
   14 C             2.78    2.73    0.14   0.00   0.00   0.00   0.00    5.65
   15 C             2.36    2.97   -0.17   0.00   0.00   0.00   0.00    5.15
   16 C             2.36    2.97   -0.17   0.00   0.00   0.00   0.00    5.15
   17 C             3.13    2.03   -0.05   0.00   0.00   0.00   0.00    5.11
   18 C             3.13    2.03   -0.05   0.00   0.00   0.00   0.00    5.11
   19 N             3.41    3.84    0.02   0.00   0.00   0.00   0.00    7.26
   20 N             3.41    3.84    0.02   0.00   0.00   0.00   0.00    7.26

          ---------------------
          ELECTROSTATIC MOMENTS
          ---------------------

 POINT   1           X           Y           Z (BOHR)    CHARGE
                 0.000000    0.000000    0.003789        1.00 (A.U.)
         DX          DY          DZ         /D/  (DEBYE)
     0.000000    0.000000   -0.849964    0.849964
 ...... END OF PROPERTY EVALUATION ......
 STEP CPU TIME =     0.17 TOTAL CPU TIME =      195.0 (    3.3 MIN)
 TOTAL WALL CLOCK TIME=      194.0 SECONDS, CPU UTILIZATION IS 100.53%
                921888  WORDS OF DYNAMIC MEMORY USED
 EXECUTION OF GAMESS TERMINATED NORMALLY Tue Sep 19 12:00:11 2017
 DDI: 1128 bytes (0.0 MB / 0 MWords) used by master data server.

 ----------------------------------------
 CPU timing information for all processes
 ========================================
 0: 170.194636 + 24.833552 = 195.028188
 ----------------------------------------
 ddikick.x: exited gracefully.
----- accounting info -----
Tue Sep 19 12:00:14 CEST 2017
Files used on the master node lpqlx139 were:
-rw-r--r-- 1 scemama scemama    1788552 Sep 19 12:00 /dev/shm//gamess/C7.dat
-rw-r--r-- 1 scemama scemama    1609989 Sep 19 11:56 /dev/shm//gamess/C7.F05
-rw-r--r-- 1 scemama scemama 6932622144 Sep 19 11:57 /dev/shm//gamess/C7.F08
-rw-r--r-- 1 scemama scemama     661224 Sep 19 12:00 /dev/shm//gamess/C7.F09
-rw-r--r-- 1 scemama scemama   44630080 Sep 19 12:00 /dev/shm//gamess/C7.F10
-rw-r--r-- 1 scemama scemama     268000 Sep 19 11:57 /dev/shm//gamess/C7.F11
-rw-r--r-- 1 scemama scemama        248 Sep 19 12:00 /dev/shm//gamess/C7.F12
-rw-r--r-- 1 scemama scemama     964432 Sep 19 12:00 /dev/shm//gamess/C7.F13
-rw-r--r-- 1 scemama scemama    4800008 Sep 19 12:00 /dev/shm//gamess/C7.F14
-rw-r--r-- 1 scemama scemama     244784 Sep 19 12:00 /dev/shm//gamess/C7.F15
-rw-r--r-- 1 scemama scemama     244784 Sep 19 12:00 /dev/shm//gamess/C7.F16
-rw-r--r-- 1 scemama scemama    1788096 Sep 19 12:00 /dev/shm//gamess/C7.F23
0.108u 0.400s 3:19.00 0.2%	0+0k 0+8io 0pf+0w
