----- GAMESS execution script -----
This job is running on host lpqlx139
under operating system Linux at Tue Sep 19 12:03:40 CEST 2017
Available scratch disk space (Kbyte units) at beginning of the job is
Filesystem     1K-blocks  Used Available Use% Mounted on
shmfs           20971520     0  20971520   0% /run/shm

 Distributed Data Interface kickoff program.
 Initiating 1 compute processes on 1 nodes to run the following command:
 /usr/local/gamess/gamess.01.x C9 

          ******************************************************
          *         GAMESS VERSION = 22 FEB 2006 (R5)          *
          *             FROM IOWA STATE UNIVERSITY             *
          * M.W.SCHMIDT, K.K.BALDRIDGE, J.A.BOATZ, S.T.ELBERT, *
          *   M.S.GORDON, J.H.JENSEN, S.KOSEKI, N.MATSUNAGA,   *
          *          K.A.NGUYEN, S.J.SU, T.L.WINDUS,           *
          *       TOGETHER WITH M.DUPUIS, J.A.MONTGOMERY       *
          *         J.COMPUT.CHEM.  14, 1347-1363(1993)        *
          ***************** AMD 64 BIT VERSION *****************

     SINCE 1993, STUDENTS AND POSTDOCS WORKING AT IOWA STATE UNIVERSITY
     AND ALSO IN THEIR VARIOUS JOBS AFTER LEAVING ISU HAVE MADE IMPORTANT
     CONTRIBUTIONS TO THE CODE:
     IVANA ADAMOVIC, CHRISTINE AIKENS, YURI ALEXEEV, POOJA ARORA, ROB BELL,
     PRADIPTA BANDYOPADHYAY, BRETT BODE, GALINA CHABAN, WEI CHEN,
     CHEOL HO CHOI, PAUL DAY, TIM DUDLEY, DMITRI FEDOROV, GRAHAM FLETCHER,
     MARK FREITAG, KURT GLAESEMANN, GRANT MERRILL, TAKESHI NAGATA,
     HEATHER NETZLOFF, BOSILJKA NJEGIC, RYAN OLSON, MIKE PAK, JIM SHOEMAKER,
     LYUDMILA SLIPCHENKO, JIE SONG, TETSUYA TAKETSUGU, SIMON WEBB.

     ADDITIONAL CODE HAS BEEN PROVIDED BY COLLABORATORS IN OTHER GROUPS:
     IOWA STATE UNIVERSITY: JOE IVANIC, KLAUS RUEDENBERG
     UNIVERSITY OF TOKYO: KIMIHIKO HIRAO, HARUYUKI NAKANO, TAKAHITO
          NAKAJIMA, TAKAO TSUNEDA, MUNEAKI KAMIYA, SUSUMU YANAGISAWA,
          KIYOSHI YAGI
     UNIVERSITY OF SOUTHERN DENMARK: FRANK JENSEN
     UNIVERSITY OF IOWA: VISVALDAS KAIRYS, HUI LI
     NATIONAL INST. OF STANDARDS AND TECHNOLOGY: WALT STEVENS, DAVID GARMER
     UNIVERSITY OF PISA: BENEDETTA MENNUCCI, JACOPO TOMASI
     UNIVERSITY OF MEMPHIS: HENRY KURTZ, PRAKASHAN KORAMBATH
     UNIVERSITY OF ALBERTA: MARIUSZ KLOBUKOWSKI
     UNIVERSITY OF NEW ENGLAND: MARK SPACKMAN
     MIE UNIVERSITY: HIROAKI UMEDA
     MICHIGAN STATE UNIVERSITY:
          KAROL KOWALSKI, MARTA WLOCH, PIOTR PIECUCH
     UNIVERSITY OF SILESIA: MONIKA MUSIAL, STANISLAW KUCHARSKI
     FACULTES UNIVERSITAIRES NOTRE-DAME DE LA PAIX:
          OLIVIER QUINET, BENOIT CHAMPAGNE
     UNIVERSITY OF CALIFORNIA - SANTA BARBARA: BERNARD KIRTMAN
     INSTITUTE FOR MOLECULAR SCIENCE: KAZUYA ISHIMURA AND SHIGERU NAGASE
     UNIVERSITY OF NOTRE DAME: DAN CHIPMAN
     KYUSHU UNIVERSITY:
          FENG LONG GU, JACEK KORCHOWIEC, MARCIN MAKOWSKI, AND YURIKO AOKI
     PENNSYLVANIA STATE UNIVERSITY:
          TZVETELIN IORDANOV, CHET SWALINA, SHARON HAMMES-SCHIFFER

 EXECUTION OF GAMESS BEGUN Tue Sep 19 12:03:41 2017

            ECHO OF THE FIRST FEW INPUT CARDS -
 INPUT CARD> $CONTRL                                                                        
 INPUT CARD>   EXETYP=RUN COORD=UNIQUE  UNITS=ANGS                                          
 INPUT CARD>   RUNTYP=ENERGY SCFTYP=MCSCF CITYP=NONE                                        
 INPUT CARD>   MAXIT=100                                                                    
 INPUT CARD>   ISPHER=1                                                                     
 INPUT CARD>   MULT=1                                                                       
 INPUT CARD>   ICHARG=1                                                                     
 INPUT CARD>   MPLEVL=0                                                                     
 INPUT CARD> $END                                                                           
 INPUT CARD>                                                                                
 INPUT CARD> $SYSTEM                                                                        
 INPUT CARD>  MWORDS=2000                                                                   
 INPUT CARD> $END                                                                           
 INPUT CARD>                                                                                
 INPUT CARD> $GUESS                                                                         
 INPUT CARD>  GUESS=MOREAD                                                                  
 INPUT CARD>  NORB=370                                                                      
 INPUT CARD> $END                                                                           
 INPUT CARD>                                                                                
 INPUT CARD> $SCF                                                                           
 INPUT CARD>  DIRSCF=.T.                                                                    
 INPUT CARD> $END                                                                           
 INPUT CARD>                                                                                
 INPUT CARD> $MCSCF                                                                         
 INPUT CARD>   FOCAS=.F.    SOSCF=.T.   FULLNR=.F.                                          
 INPUT CARD>   CISTEP=GUGA EKT=.F. QUAD=.F. JACOBI=.f.                                      
 INPUT CARD>   MAXIT=1000                                                                   
 INPUT CARD> $END                                                                           
 INPUT CARD>                                                                                
 INPUT CARD> $GUGDIA                                                                        
 INPUT CARD>  NSTATE=2                                                                      
 INPUT CARD> $END                                                                           
 INPUT CARD>                                                                                
 INPUT CARD> $GUGDM2                                                                        
 INPUT CARD>  WSTATE(1)=0.5,0.5                                                             
 INPUT CARD> $END                                                                           
 INPUT CARD>                                                                                
 INPUT CARD>                                                                                
 INPUT CARD> $DRT                                                                           
 INPUT CARD>  NMCC=39                                                                       
 INPUT CARD>  NDOC=1                                                                        
 INPUT CARD>  NALP=0                                                                        
 INPUT CARD>  NVAL=1                                                                        
 INPUT CARD>  NEXT=0                                                                        
 INPUT CARD>  ISTSYM=1                                                                      
 INPUT CARD>  FORS=.TRUE.                                                                   
 INPUT CARD>  GROUP=C1                                                                      
 INPUT CARD>  MXNINT= 600000                                                                
 INPUT CARD>  NPRT=2                                                                        
 INPUT CARD> $END                                                                           

 ..... DONE SETTING UP THE RUN .....
 2000000000 WORDS OF MEMORY AVAILABLE

     BASIS OPTIONS
     -------------
     GBASIS=ACCD         IGAUSS=       0      POLAR=NONE    
     NDFUNC=       0     NFFUNC=       0     DIFFSP=       F
     NPFUNC=       0      DIFFS=       F


     RUN TITLE
     ---------
 C9                                                                              

 THE POINT GROUP OF THE MOLECULE IS C1      
 THE ORDER OF THE PRINCIPAL AXIS IS     0

 ATOM      ATOMIC                      COORDINATES (BOHR)
           CHARGE         X                   Y                   Z
 H           1.0     0.0000000000        0.0000000000        2.3456941918
 H           1.0     0.0000000000        2.3869053362       -2.9661592638
 H           1.0     0.0000000000       -2.3869053362       -2.9661592638
 H           1.0     0.0000000000        4.4485623737        2.4712286892
 H           1.0     0.0000000000       -4.4485623737        2.4712286892
 H           1.0     0.0000000000        7.1904962004       -2.6821901396
 H           1.0     0.0000000000       -7.1904962004       -2.6821901396
 H           1.0     0.0000000000        8.8714868350        2.9030783206
 H           1.0     0.0000000000       -8.8714868350        2.9030783206
 H           1.0     0.0000000000       11.8839217087       -1.7963962006
 H           1.0     0.0000000000      -11.8839217087       -1.7963962006
 H           1.0     0.0000000000       12.9193630486        1.2764739999
 H           1.0     0.0000000000      -12.9193630486        1.2764739999
 C           6.0     0.0000000000        0.0000000000        0.2892754747
 C           6.0     0.0000000000        2.3295767189       -0.9159388479
 C           6.0     0.0000000000       -2.3295767189       -0.9159388479
 C           6.0     0.0000000000        4.5726191054        0.4185743063
 C           6.0     0.0000000000       -4.5726191054        0.4185743063
 C           6.0     0.0000000000        6.9826301212       -0.6423310913
 C           6.0     0.0000000000       -6.9826301212       -0.6423310913
 C           6.0     0.0000000000        9.0953740111        0.8646951483
 C           6.0     0.0000000000       -9.0953740111        0.8646951483
 N           7.0     0.0000000000       11.4667420202        0.0576120762
 N           7.0     0.0000000000      -11.4667420202        0.0576120762

          INTERNUCLEAR DISTANCES (ANGS.)
          ------------------------------

                    H              H              H              H         

  1  H               0.0000000      3.0816615      3.0816615      2.3550151 *  
  2  H               3.0816615      0.0000000      2.5261920 *    3.0772291    
  3  H               3.0816615      2.5261920 *    0.0000000      4.6220174    
  4  H               2.3550151 *    3.0772291      4.6220174      0.0000000    
  5  H               2.3550151 *    4.6220174      3.0772291      4.7081560    
  6  H               4.6429946      2.5463888 *    5.0703703      3.0890505    
  7  H               4.6429946      5.0703703      2.5463888 *    6.7358550    
  8  H               4.7038457      4.6283425      6.7186621      2.3516410 *  
  9  H               4.7038457      6.7186621      4.6283425      7.0523705    
 10  H               6.6597437      5.0635839      7.5771244      4.5366632    
 11  H               6.6597437      7.5771244      5.0635839      8.9329549    
 12  H               6.8600064      6.0087279      8.4051238      4.5269220    
 13  H               6.8600064      8.4051238      6.0087279      9.2124314    
 14  C               1.0882100 *    2.1361446 *    2.1361446 *    2.6219986 *  
 15  C               2.1210159 *    1.0853541 *    2.7214638 *    2.1142604 *  
 16  C               2.1210159 *    2.7214638 *    1.0853541 *    4.0097557    
 17  C               2.6258411 *    2.1321159 *    4.0952781      1.0882000 *  
 18  C               2.6258411 *    4.0952781      2.1321159 *    4.8958221    
 19  C               4.0191498      2.7251788 *    5.1083662      2.1243520 *  
 20  C               4.0191498      5.1083662      2.7251788 *    6.2694980    
 21  C               4.8764534      4.0880098      6.4054099      2.6017988 *  
 22  C               4.8764534      6.4054099      4.0880098      7.2173872    
 23  N               6.1875619      5.0642740      7.5036277      3.9273506    
 24  N               6.1875619      7.5036277      5.0642740      8.5183149    

                    H              H              H              H         

  1  H               2.3550151 *    4.6429946      4.6429946      4.7038457    
  2  H               4.6220174      2.5463888 *    5.0703703      4.6283425    
  3  H               3.0772291      5.0703703      2.5463888 *    6.7186621    
  4  H               4.7081560      3.0890505      6.7358550      2.3516410 *  
  5  H               0.0000000      6.7358550      3.0890505      7.0523705    
  6  H               6.7358550      0.0000000      7.6100940      3.0865577    
  7  H               3.0890505      7.6100940      0.0000000      8.9988536    
  8  H               7.0523705      3.0865577      8.9988536      0.0000000    
  9  H               2.3516410 *    8.9988536      3.0865577      9.3891780    
 10  H               8.9329549      2.5275000 *   10.1046261      2.9539196 *  
 11  H               4.5366632     10.1046261      2.5275000 *   11.2613102    
 12  H               9.2124314      3.6849488     10.8459065      2.3085198 *  
 13  H               4.5269220     10.8459065      3.6849488     11.5633037    
 14  C               2.6219986 *    4.1171501      4.1171501      4.8941099    
 15  C               4.0097557      2.7368330 *    5.1237758      4.0085475    
 16  C               2.1142604 *    5.1237758      2.7368330 *    6.2623990    
 17  C               4.8958221      2.1474441 *    6.4374064      2.6274609 *  
 18  C               1.0882000 *    6.4374064      2.1474441 *    7.2347790    
 19  C               6.2694980      1.0850370 *    7.5773772      2.1257984 *  
 20  C               2.1243520 *    7.5773772      1.0850370 *    8.5968578    
 21  C               7.2173872      2.1304859 *    8.8201318      1.0851529 *  
 22  C               2.6017988 *    8.8201318      2.1304859 *    9.5686470    
 23  N               8.5183149      2.6875117 *    9.9788723      2.0379871 *  
 24  N               3.9273506      9.9788723      2.6875117 *   10.8673506    

                    H              H              H              H         

  1  H               4.7038457      6.6597437      6.6597437      6.8600064    
  2  H               6.7186621      5.0635839      7.5771244      6.0087279    
  3  H               4.6283425      7.5771244      5.0635839      8.4051238    
  4  H               7.0523705      4.5366632      8.9329549      4.5269220    
  5  H               2.3516410 *    8.9329549      4.5366632      9.2124314    
  6  H               8.9988536      2.5275000 *   10.1046261      3.6849488    
  7  H               3.0865577     10.1046261      2.5275000 *   10.8459065    
  8  H               9.3891780      2.9539196 *   11.2613102      2.3085198 *  
  9  H               0.0000000     11.2613102      2.9539196 *   11.5633037    
 10  H              11.2613102      0.0000000     12.5774020      1.7159277 *  
 11  H               2.9539196 *   12.5774020      0.0000000     13.2256785    
 12  H              11.5633037      1.7159277 *   13.2256785      0.0000000    
 13  H               2.3085198 *   13.2256785      1.7159277 *   13.6732660    
 14  C               4.8941099      6.3848173      6.3848173      6.8565630    
 15  C               6.2623990      5.0773644      7.5358769      5.7227100    
 16  C               4.0085475      7.5358769      5.0773644      8.1523673    
 17  C               7.2347790      4.0426247      8.7869532      4.4401764    
 18  C               2.6274609 *    8.7869532      4.0426247      9.2674851    
 19  C               8.5968578      2.6645809 *   10.0024109      3.3016000    
 20  C               2.1257984 *   10.0024109      2.6645809 *   10.5805169    
 21  C               9.5686470      2.0397299 *   11.1907196      2.0352665 *  
 22  C               1.0851529 *   11.1907196      2.0397299 *   11.6517357    
 23  N              10.8673506      1.0056297 *   12.3955277      1.0034479 *  
 24  N               2.0379871 *   12.3955277      1.0056297 *   12.9206809    

                    H              C              C              C         

  1  H               6.8600064      1.0882100 *    2.1210159 *    2.1210159 *  
  2  H               8.4051238      2.1361446 *    1.0853541 *    2.7214638 *  
  3  H               6.0087279      2.1361446 *    2.7214638 *    1.0853541 *  
  4  H               9.2124314      2.6219986 *    2.1142604 *    4.0097557    
  5  H               4.5269220      2.6219986 *    4.0097557      2.1142604 *  
  6  H              10.8459065      4.1171501      2.7368330 *    5.1237758    
  7  H               3.6849488      4.1171501      5.1237758      2.7368330 *  
  8  H              11.5633037      4.8941099      4.0085475      6.2623990    
  9  H               2.3085198 *    4.8941099      6.2623990      4.0085475    
 10  H              13.2256785      6.3848173      5.0773644      7.5358769    
 11  H               1.7159277 *    6.3848173      7.5358769      5.0773644    
 12  H              13.6732660      6.8565630      5.7227100      8.1523673    
 13  H               0.0000000      6.8565630      8.1523673      5.7227100    
 14  C               6.8565630      0.0000000      1.3879654 *    1.3879654 *  
 15  C               8.1523673      1.3879654 *    0.0000000      2.4655180 *  
 16  C               5.7227100      1.3879654 *    2.4655180 *    0.0000000    
 17  C               9.2674851      2.4206932 *    1.3811592 *    3.7201286    
 18  C               4.4401764      2.4206932 *    3.7201286      1.3811592 *  
 19  C              10.5805169      3.7277904      2.4665432 *    4.9299346    
 20  C               3.3016000      3.7277904      4.9299346      2.4665432 *  
 21  C              11.6517357      4.8226875      3.7022244      6.1188122    
 22  C               2.0352665 *    4.8226875      6.1188122      3.7022244    
 23  N              12.9206809      6.0691772      4.8625484      7.3188526    
 24  N               1.0034479 *    6.0691772      7.3188526      4.8625484    

                    C              C              C              C         

  1  H               2.6258411 *    2.6258411 *    4.0191498      4.0191498    
  2  H               2.1321159 *    4.0952781      2.7251788 *    5.1083662    
  3  H               4.0952781      2.1321159 *    5.1083662      2.7251788 *  
  4  H               1.0882000 *    4.8958221      2.1243520 *    6.2694980    
  5  H               4.8958221      1.0882000 *    6.2694980      2.1243520 *  
  6  H               2.1474441 *    6.4374064      1.0850370 *    7.5773772    
  7  H               6.4374064      2.1474441 *    7.5773772      1.0850370 *  
  8  H               2.6274609 *    7.2347790      2.1257984 *    8.5968578    
  9  H               7.2347790      2.6274609 *    8.5968578      2.1257984 *  
 10  H               4.0426247      8.7869532      2.6645809 *   10.0024109    
 11  H               8.7869532      4.0426247     10.0024109      2.6645809 *  
 12  H               4.4401764      9.2674851      3.3016000     10.5805169    
 13  H               9.2674851      4.4401764     10.5805169      3.3016000    
 14  C               2.4206932 *    2.4206932 *    3.7277904      3.7277904    
 15  C               1.3811592 *    3.7201286      2.4665432 *    4.9299346    
 16  C               3.7201286      1.3811592 *    4.9299346      2.4665432 *  
 17  C               0.0000000      4.8394520      1.3934226 *    6.1404927    
 18  C               4.8394520      0.0000000      6.1404927      1.3934226 *  
 19  C               1.3934226 *    6.1404927      0.0000000      7.3900980    
 20  C               6.1404927      1.3934226 *    7.3900980      0.0000000    
 21  C               2.4049540 *    7.2366427      1.3732955 *    8.5454072    
 22  C               7.2366427      2.4049540 *    8.5454072      1.3732955 *  
 23  N               3.6532101      8.4898141      2.4016242 *    9.7700116    
 24  N               8.4898141      3.6532101      9.7700116      2.4016242 *  

                    C              C              N              N         

  1  H               4.8764534      4.8764534      6.1875619      6.1875619    
  2  H               4.0880098      6.4054099      5.0642740      7.5036277    
  3  H               6.4054099      4.0880098      7.5036277      5.0642740    
  4  H               2.6017988 *    7.2173872      3.9273506      8.5183149    
  5  H               7.2173872      2.6017988 *    8.5183149      3.9273506    
  6  H               2.1304859 *    8.8201318      2.6875117 *    9.9788723    
  7  H               8.8201318      2.1304859 *    9.9788723      2.6875117 *  
  8  H               1.0851529 *    9.5686470      2.0379871 *   10.8673506    
  9  H               9.5686470      1.0851529 *   10.8673506      2.0379871 *  
 10  H               2.0397299 *   11.1907196      1.0056297 *   12.3955277    
 11  H              11.1907196      2.0397299 *   12.3955277      1.0056297 *  
 12  H               2.0352665 *   11.6517357      1.0034479 *   12.9206809    
 13  H              11.6517357      2.0352665 *   12.9206809      1.0034479 *  
 14  C               4.8226875      4.8226875      6.0691772      6.0691772    
 15  C               3.7022244      6.1188122      4.8625484      7.3188526    
 16  C               6.1188122      3.7022244      7.3188526      4.8625484    
 17  C               2.4049540 *    7.2366427      3.6532101      8.4898141    
 18  C               7.2366427      2.4049540 *    8.4898141      3.6532101    
 19  C               1.3732955 *    8.5454072      2.4016242 *    9.7700116    
 20  C               8.5454072      1.3732955 *    9.7700116      2.4016242 *  
 21  C               0.0000000      9.6261300      1.3255620 *   10.8893826    
 22  C               9.6261300      0.0000000     10.8893826      1.3255620 *  
 23  N               1.3255620 *   10.8893826      0.0000000     12.1358780    
 24  N              10.8893826      1.3255620 *   12.1358780      0.0000000    

  * ... LESS THAN  3.000


     ATOMIC BASIS SET
     ----------------
 THE CONTRACTED PRIMITIVE FUNCTIONS HAVE BEEN UNNORMALIZED
 THE CONTRACTED BASIS FUNCTIONS ARE NOW NORMALIZED TO UNITY

  SHELL TYPE  PRIMITIVE        EXPONENT          CONTRACTION COEFFICIENT(S)

 H         

      1   S       1            13.0100000    0.033498726390
      1   S       2             1.9620000    0.234800801174
      1   S       3             0.4446000    0.813682957883

      2   S       4             0.1220000    1.000000000000

      3   P       5             0.7270000    1.000000000000

      4   S       6             0.0297400    1.000000000000

      5   P       7             0.1410000    1.000000000000

 H         

      6   S       8            13.0100000    0.033498726390
      6   S       9             1.9620000    0.234800801174
      6   S      10             0.4446000    0.813682957883

      7   S      11             0.1220000    1.000000000000

      8   P      12             0.7270000    1.000000000000

      9   S      13             0.0297400    1.000000000000

     10   P      14             0.1410000    1.000000000000

 H         

     11   S      15            13.0100000    0.033498726390
     11   S      16             1.9620000    0.234800801174
     11   S      17             0.4446000    0.813682957883

     12   S      18             0.1220000    1.000000000000

     13   P      19             0.7270000    1.000000000000

     14   S      20             0.0297400    1.000000000000

     15   P      21             0.1410000    1.000000000000

 H         

     16   S      22            13.0100000    0.033498726390
     16   S      23             1.9620000    0.234800801174
     16   S      24             0.4446000    0.813682957883

     17   S      25             0.1220000    1.000000000000

     18   P      26             0.7270000    1.000000000000

     19   S      27             0.0297400    1.000000000000

     20   P      28             0.1410000    1.000000000000

 H         

     21   S      29            13.0100000    0.033498726390
     21   S      30             1.9620000    0.234800801174
     21   S      31             0.4446000    0.813682957883

     22   S      32             0.1220000    1.000000000000

     23   P      33             0.7270000    1.000000000000

     24   S      34             0.0297400    1.000000000000

     25   P      35             0.1410000    1.000000000000

 H         

     26   S      36            13.0100000    0.033498726390
     26   S      37             1.9620000    0.234800801174
     26   S      38             0.4446000    0.813682957883

     27   S      39             0.1220000    1.000000000000

     28   P      40             0.7270000    1.000000000000

     29   S      41             0.0297400    1.000000000000

     30   P      42             0.1410000    1.000000000000

 H         

     31   S      43            13.0100000    0.033498726390
     31   S      44             1.9620000    0.234800801174
     31   S      45             0.4446000    0.813682957883

     32   S      46             0.1220000    1.000000000000

     33   P      47             0.7270000    1.000000000000

     34   S      48             0.0297400    1.000000000000

     35   P      49             0.1410000    1.000000000000

 H         

     36   S      50            13.0100000    0.033498726390
     36   S      51             1.9620000    0.234800801174
     36   S      52             0.4446000    0.813682957883

     37   S      53             0.1220000    1.000000000000

     38   P      54             0.7270000    1.000000000000

     39   S      55             0.0297400    1.000000000000

     40   P      56             0.1410000    1.000000000000

 H         

     41   S      57            13.0100000    0.033498726390
     41   S      58             1.9620000    0.234800801174
     41   S      59             0.4446000    0.813682957883

     42   S      60             0.1220000    1.000000000000

     43   P      61             0.7270000    1.000000000000

     44   S      62             0.0297400    1.000000000000

     45   P      63             0.1410000    1.000000000000

 H         

     46   S      64            13.0100000    0.033498726390
     46   S      65             1.9620000    0.234800801174
     46   S      66             0.4446000    0.813682957883

     47   S      67             0.1220000    1.000000000000

     48   P      68             0.7270000    1.000000000000

     49   S      69             0.0297400    1.000000000000

     50   P      70             0.1410000    1.000000000000

 H         

     51   S      71            13.0100000    0.033498726390
     51   S      72             1.9620000    0.234800801174
     51   S      73             0.4446000    0.813682957883

     52   S      74             0.1220000    1.000000000000

     53   P      75             0.7270000    1.000000000000

     54   S      76             0.0297400    1.000000000000

     55   P      77             0.1410000    1.000000000000

 H         

     56   S      78            13.0100000    0.033498726390
     56   S      79             1.9620000    0.234800801174
     56   S      80             0.4446000    0.813682957883

     57   S      81             0.1220000    1.000000000000

     58   P      82             0.7270000    1.000000000000

     59   S      83             0.0297400    1.000000000000

     60   P      84             0.1410000    1.000000000000

 H         

     61   S      85            13.0100000    0.033498726390
     61   S      86             1.9620000    0.234800801174
     61   S      87             0.4446000    0.813682957883

     62   S      88             0.1220000    1.000000000000

     63   P      89             0.7270000    1.000000000000

     64   S      90             0.0297400    1.000000000000

     65   P      91             0.1410000    1.000000000000

 C         

     66   S      92          6665.0000000    0.000691583963
     66   S      93          1000.0000000    0.005325796153
     66   S      94           228.0000000    0.027060721042
     66   S      95            64.7100000    0.101656846141
     66   S      96            21.0600000    0.274574823617
     66   S      97             7.4950000    0.448294318924
     66   S      98             2.7970000    0.284902610715
     66   S      99             0.5215000    0.015194859206

     67   S     100          6665.0000000   -0.000293269653
     67   S     101          1000.0000000   -0.002318035474
     67   S     102           228.0000000   -0.011499786039
     67   S     103            64.7100000   -0.046826727010
     67   S     104            21.0600000   -0.128466168750
     67   S     105             7.4950000   -0.301266272463
     67   S     106             2.7970000   -0.255630702330
     67   S     107             0.5215000    1.093793361012

     68   S     108             0.1596000    1.000000000000

     69   P     109             9.4390000    0.056979251590
     69   P     110             2.0020000    0.313207211501
     69   P     111             0.5456000    0.760376741738

     70   P     112             0.1517000    1.000000000000

     71   D     113             0.5500000    1.000000000000

     72   S     114             0.0469000    1.000000000000

     73   P     115             0.0404100    1.000000000000

     74   D     116             0.1510000    1.000000000000

 C         

     75   S     117          6665.0000000    0.000691583963
     75   S     118          1000.0000000    0.005325796153
     75   S     119           228.0000000    0.027060721042
     75   S     120            64.7100000    0.101656846141
     75   S     121            21.0600000    0.274574823617
     75   S     122             7.4950000    0.448294318924
     75   S     123             2.7970000    0.284902610715
     75   S     124             0.5215000    0.015194859206

     76   S     125          6665.0000000   -0.000293269653
     76   S     126          1000.0000000   -0.002318035474
     76   S     127           228.0000000   -0.011499786039
     76   S     128            64.7100000   -0.046826727010
     76   S     129            21.0600000   -0.128466168750
     76   S     130             7.4950000   -0.301266272463
     76   S     131             2.7970000   -0.255630702330
     76   S     132             0.5215000    1.093793361012

     77   S     133             0.1596000    1.000000000000

     78   P     134             9.4390000    0.056979251590
     78   P     135             2.0020000    0.313207211501
     78   P     136             0.5456000    0.760376741738

     79   P     137             0.1517000    1.000000000000

     80   D     138             0.5500000    1.000000000000

     81   S     139             0.0469000    1.000000000000

     82   P     140             0.0404100    1.000000000000

     83   D     141             0.1510000    1.000000000000

 C         

     84   S     142          6665.0000000    0.000691583963
     84   S     143          1000.0000000    0.005325796153
     84   S     144           228.0000000    0.027060721042
     84   S     145            64.7100000    0.101656846141
     84   S     146            21.0600000    0.274574823617
     84   S     147             7.4950000    0.448294318924
     84   S     148             2.7970000    0.284902610715
     84   S     149             0.5215000    0.015194859206

     85   S     150          6665.0000000   -0.000293269653
     85   S     151          1000.0000000   -0.002318035474
     85   S     152           228.0000000   -0.011499786039
     85   S     153            64.7100000   -0.046826727010
     85   S     154            21.0600000   -0.128466168750
     85   S     155             7.4950000   -0.301266272463
     85   S     156             2.7970000   -0.255630702330
     85   S     157             0.5215000    1.093793361012

     86   S     158             0.1596000    1.000000000000

     87   P     159             9.4390000    0.056979251590
     87   P     160             2.0020000    0.313207211501
     87   P     161             0.5456000    0.760376741738

     88   P     162             0.1517000    1.000000000000

     89   D     163             0.5500000    1.000000000000

     90   S     164             0.0469000    1.000000000000

     91   P     165             0.0404100    1.000000000000

     92   D     166             0.1510000    1.000000000000

 C         

     93   S     167          6665.0000000    0.000691583963
     93   S     168          1000.0000000    0.005325796153
     93   S     169           228.0000000    0.027060721042
     93   S     170            64.7100000    0.101656846141
     93   S     171            21.0600000    0.274574823617
     93   S     172             7.4950000    0.448294318924
     93   S     173             2.7970000    0.284902610715
     93   S     174             0.5215000    0.015194859206

     94   S     175          6665.0000000   -0.000293269653
     94   S     176          1000.0000000   -0.002318035474
     94   S     177           228.0000000   -0.011499786039
     94   S     178            64.7100000   -0.046826727010
     94   S     179            21.0600000   -0.128466168750
     94   S     180             7.4950000   -0.301266272463
     94   S     181             2.7970000   -0.255630702330
     94   S     182             0.5215000    1.093793361012

     95   S     183             0.1596000    1.000000000000

     96   P     184             9.4390000    0.056979251590
     96   P     185             2.0020000    0.313207211501
     96   P     186             0.5456000    0.760376741738

     97   P     187             0.1517000    1.000000000000

     98   D     188             0.5500000    1.000000000000

     99   S     189             0.0469000    1.000000000000

    100   P     190             0.0404100    1.000000000000

    101   D     191             0.1510000    1.000000000000

 C         

    102   S     192          6665.0000000    0.000691583963
    102   S     193          1000.0000000    0.005325796153
    102   S     194           228.0000000    0.027060721042
    102   S     195            64.7100000    0.101656846141
    102   S     196            21.0600000    0.274574823617
    102   S     197             7.4950000    0.448294318924
    102   S     198             2.7970000    0.284902610715
    102   S     199             0.5215000    0.015194859206

    103   S     200          6665.0000000   -0.000293269653
    103   S     201          1000.0000000   -0.002318035474
    103   S     202           228.0000000   -0.011499786039
    103   S     203            64.7100000   -0.046826727010
    103   S     204            21.0600000   -0.128466168750
    103   S     205             7.4950000   -0.301266272463
    103   S     206             2.7970000   -0.255630702330
    103   S     207             0.5215000    1.093793361012

    104   S     208             0.1596000    1.000000000000

    105   P     209             9.4390000    0.056979251590
    105   P     210             2.0020000    0.313207211501
    105   P     211             0.5456000    0.760376741738

    106   P     212             0.1517000    1.000000000000

    107   D     213             0.5500000    1.000000000000

    108   S     214             0.0469000    1.000000000000

    109   P     215             0.0404100    1.000000000000

    110   D     216             0.1510000    1.000000000000

 C         

    111   S     217          6665.0000000    0.000691583963
    111   S     218          1000.0000000    0.005325796153
    111   S     219           228.0000000    0.027060721042
    111   S     220            64.7100000    0.101656846141
    111   S     221            21.0600000    0.274574823617
    111   S     222             7.4950000    0.448294318924
    111   S     223             2.7970000    0.284902610715
    111   S     224             0.5215000    0.015194859206

    112   S     225          6665.0000000   -0.000293269653
    112   S     226          1000.0000000   -0.002318035474
    112   S     227           228.0000000   -0.011499786039
    112   S     228            64.7100000   -0.046826727010
    112   S     229            21.0600000   -0.128466168750
    112   S     230             7.4950000   -0.301266272463
    112   S     231             2.7970000   -0.255630702330
    112   S     232             0.5215000    1.093793361012

    113   S     233             0.1596000    1.000000000000

    114   P     234             9.4390000    0.056979251590
    114   P     235             2.0020000    0.313207211501
    114   P     236             0.5456000    0.760376741738

    115   P     237             0.1517000    1.000000000000

    116   D     238             0.5500000    1.000000000000

    117   S     239             0.0469000    1.000000000000

    118   P     240             0.0404100    1.000000000000

    119   D     241             0.1510000    1.000000000000

 C         

    120   S     242          6665.0000000    0.000691583963
    120   S     243          1000.0000000    0.005325796153
    120   S     244           228.0000000    0.027060721042
    120   S     245            64.7100000    0.101656846141
    120   S     246            21.0600000    0.274574823617
    120   S     247             7.4950000    0.448294318924
    120   S     248             2.7970000    0.284902610715
    120   S     249             0.5215000    0.015194859206

    121   S     250          6665.0000000   -0.000293269653
    121   S     251          1000.0000000   -0.002318035474
    121   S     252           228.0000000   -0.011499786039
    121   S     253            64.7100000   -0.046826727010
    121   S     254            21.0600000   -0.128466168750
    121   S     255             7.4950000   -0.301266272463
    121   S     256             2.7970000   -0.255630702330
    121   S     257             0.5215000    1.093793361012

    122   S     258             0.1596000    1.000000000000

    123   P     259             9.4390000    0.056979251590
    123   P     260             2.0020000    0.313207211501
    123   P     261             0.5456000    0.760376741738

    124   P     262             0.1517000    1.000000000000

    125   D     263             0.5500000    1.000000000000

    126   S     264             0.0469000    1.000000000000

    127   P     265             0.0404100    1.000000000000

    128   D     266             0.1510000    1.000000000000

 C         

    129   S     267          6665.0000000    0.000691583963
    129   S     268          1000.0000000    0.005325796153
    129   S     269           228.0000000    0.027060721042
    129   S     270            64.7100000    0.101656846141
    129   S     271            21.0600000    0.274574823617
    129   S     272             7.4950000    0.448294318924
    129   S     273             2.7970000    0.284902610715
    129   S     274             0.5215000    0.015194859206

    130   S     275          6665.0000000   -0.000293269653
    130   S     276          1000.0000000   -0.002318035474
    130   S     277           228.0000000   -0.011499786039
    130   S     278            64.7100000   -0.046826727010
    130   S     279            21.0600000   -0.128466168750
    130   S     280             7.4950000   -0.301266272463
    130   S     281             2.7970000   -0.255630702330
    130   S     282             0.5215000    1.093793361012

    131   S     283             0.1596000    1.000000000000

    132   P     284             9.4390000    0.056979251590
    132   P     285             2.0020000    0.313207211501
    132   P     286             0.5456000    0.760376741738

    133   P     287             0.1517000    1.000000000000

    134   D     288             0.5500000    1.000000000000

    135   S     289             0.0469000    1.000000000000

    136   P     290             0.0404100    1.000000000000

    137   D     291             0.1510000    1.000000000000

 C         

    138   S     292          6665.0000000    0.000691583963
    138   S     293          1000.0000000    0.005325796153
    138   S     294           228.0000000    0.027060721042
    138   S     295            64.7100000    0.101656846141
    138   S     296            21.0600000    0.274574823617
    138   S     297             7.4950000    0.448294318924
    138   S     298             2.7970000    0.284902610715
    138   S     299             0.5215000    0.015194859206

    139   S     300          6665.0000000   -0.000293269653
    139   S     301          1000.0000000   -0.002318035474
    139   S     302           228.0000000   -0.011499786039
    139   S     303            64.7100000   -0.046826727010
    139   S     304            21.0600000   -0.128466168750
    139   S     305             7.4950000   -0.301266272463
    139   S     306             2.7970000   -0.255630702330
    139   S     307             0.5215000    1.093793361012

    140   S     308             0.1596000    1.000000000000

    141   P     309             9.4390000    0.056979251590
    141   P     310             2.0020000    0.313207211501
    141   P     311             0.5456000    0.760376741738

    142   P     312             0.1517000    1.000000000000

    143   D     313             0.5500000    1.000000000000

    144   S     314             0.0469000    1.000000000000

    145   P     315             0.0404100    1.000000000000

    146   D     316             0.1510000    1.000000000000

 N         

    147   S     317          9046.0000000    0.000699617413
    147   S     318          1357.0000000    0.005386054630
    147   S     319           309.3000000    0.027391021189
    147   S     320            87.7300000    0.103150591982
    147   S     321            28.5600000    0.278570663317
    147   S     322            10.2100000    0.448294849454
    147   S     323             3.8380000    0.278085928395
    147   S     324             0.7466000    0.015431561233

    148   S     325          9046.0000000   -0.000304990096
    148   S     326          1357.0000000   -0.002408026379
    148   S     327           309.3000000   -0.011944448725
    148   S     328            87.7300000   -0.048925992909
    148   S     329            28.5600000   -0.134472724725
    148   S     330            10.2100000   -0.315112577700
    148   S     331             3.8380000   -0.242857832550
    148   S     332             0.7466000    1.094382206854

    149   S     333             0.2248000    1.000000000000

    150   P     334            13.5500000    0.058905676772
    150   P     335             2.9170000    0.320461106714
    150   P     336             0.7973000    0.753042061792

    151   P     337             0.2185000    1.000000000000

    152   D     338             0.8170000    1.000000000000

    153   S     339             0.0612400    1.000000000000

    154   P     340             0.0561100    1.000000000000

    155   D     341             0.2300000    1.000000000000

 N         

    156   S     342          9046.0000000    0.000699617413
    156   S     343          1357.0000000    0.005386054630
    156   S     344           309.3000000    0.027391021189
    156   S     345            87.7300000    0.103150591982
    156   S     346            28.5600000    0.278570663317
    156   S     347            10.2100000    0.448294849454
    156   S     348             3.8380000    0.278085928395
    156   S     349             0.7466000    0.015431561233

    157   S     350          9046.0000000   -0.000304990096
    157   S     351          1357.0000000   -0.002408026379
    157   S     352           309.3000000   -0.011944448725
    157   S     353            87.7300000   -0.048925992909
    157   S     354            28.5600000   -0.134472724725
    157   S     355            10.2100000   -0.315112577700
    157   S     356             3.8380000   -0.242857832550
    157   S     357             0.7466000    1.094382206854

    158   S     358             0.2248000    1.000000000000

    159   P     359            13.5500000    0.058905676772
    159   P     360             2.9170000    0.320461106714
    159   P     361             0.7973000    0.753042061792

    160   P     362             0.2185000    1.000000000000

    161   D     363             0.8170000    1.000000000000

    162   S     364             0.0612400    1.000000000000

    163   P     365             0.0561100    1.000000000000

    164   D     366             0.2300000    1.000000000000

 TOTAL NUMBER OF BASIS SET SHELLS             =  164
 NUMBER OF CARTESIAN GAUSSIAN BASIS FUNCTIONS =  392
 NOTE: THIS RUN WILL RESTRICT THE MO VARIATION SPACE TO SPHERICAL HARMONICS.
 THE NUMBER OF ORBITALS KEPT IN THE VARIATIONAL SPACE WILL BE PRINTED LATER.
 NUMBER OF ELECTRONS                          =   80
 CHARGE OF MOLECULE                           =    1
 SPIN MULTIPLICITY                            =    1
 NUMBER OF OCCUPIED ORBITALS (ALPHA)          =   40
 NUMBER OF OCCUPIED ORBITALS (BETA )          =   40
 TOTAL NUMBER OF ATOMS                        =   24
 THE NUCLEAR REPULSION ENERGY IS      498.5415513784

     $CONTRL OPTIONS
     ---------------
 SCFTYP=MCSCF        RUNTYP=ENERGY       EXETYP=RUN     
 MPLEVL=       0     CITYP =NONE         CCTYP =NONE         VBTYP =NONE    
 MULT  =       1     ICHARG=       1     NZVAR =       0     COORD =UNIQUE  
 PP    =NONE         RELWFN=NONE         LOCAL =NONE         NUMGRD=       F
 ISPHER=       1     NOSYM =       0     MAXIT =     100     UNITS =ANGS    
 PLTORB=       F     MOLPLT=       F     AIMPAC=       F     FRIEND=        
 NPRINT=       7     IREST =       0     GEOM  =INPUT   
 NORMF =       0     NORMP =       0     ITOL  =      20     ICUT  =       9
 INTTYP=BEST         GRDTYP=BEST         QMTTOL= 1.0E-06

     $SYSTEM OPTIONS
     ---------------
  REPLICATED MEMORY=  2000000000 WORDS (ON EVERY NODE).
 DISTRIBUTED MEMDDI=           0 MILLION WORDS IN AGGREGATE,
 MEMDDI DISTRIBUTED OVER   1 PROCESSORS IS           0 WORDS/PROCESSOR.
 TOTAL MEMORY REQUESTED ON EACH PROCESSOR=  2000000000 WORDS.
 TIMLIM=      525600.00 MINUTES, OR   365.00 DAYS.
 PARALL= F  BALTYP=  NXTVAL  KDIAG=    0  COREFL= F

          ----------------
          PROPERTIES INPUT
          ----------------

     MOMENTS            FIELD           POTENTIAL          DENSITY
 IEMOM =       1   IEFLD =       0   IEPOT =       0   IEDEN =       0
 WHERE =COMASS     WHERE =NUCLEI     WHERE =NUCLEI     WHERE =NUCLEI  
 OUTPUT=BOTH       OUTPUT=BOTH       OUTPUT=BOTH       OUTPUT=BOTH    
 IEMINT=       0   IEFINT=       0                     IEDINT=       0
                                                       MORB  =       0

     -------------------------------
     INTEGRAL TRANSFORMATION OPTIONS
     -------------------------------
     NWORD  =       0     CUTOFF = 1.0E-09
     MPTRAN =       0     DIRTRF =       F
     AOINTS =DUP     

          ----------------------
          MCSCF INPUT PARAMETERS
          ----------------------
 CONVERGER SELECTION: FOCAS = F  SOSCF = T  FULLNR = F  QUD = F  JACOBI = F
 SECULAR EQUATION METHOD CISTEP = GUGA    
 --- GENERAL INPUT OPTIONS:
 MAXIT =    1000  MICIT =       5  ACURCY= 1.000E-05
 DAMP  =   0.000  CANONC=       T  ENGTOL= 1.000E-10
 EKT   =       F  NPUNCH=       2  NWORD =         0
 --- INPUT FOR SOSCF CONVERGER:
 FORS  =       T  NOFO  =       1

          ----------------------
          INTEGRAL INPUT OPTIONS
          ----------------------
 NOPK  =       1 NORDER=       0 SCHWRZ=       T

     ------------------------------------------
     THE POINT GROUP IS C1 , NAXIS= 0, ORDER= 1
     ------------------------------------------

 -- VARIATIONAL SPACE WILL BE RESTRICTED TO PURE SPHERICAL HARMONICS ONLY --
 AFTER EXCLUDING CONTAMINANT COMBINATIONS FROM THE CARTESIAN GAUSSIAN BASIS
 SET, THE NUMBER OF SPHERICAL HARMONICS KEPT IN THE VARIATION SPACE IS  370

     DIMENSIONS OF THE SYMMETRY SUBSPACES ARE
 A   =  370

 ..... DONE SETTING UP THE RUN .....
 STEP CPU TIME =     0.13 TOTAL CPU TIME =        0.1 (    0.0 MIN)
 TOTAL WALL CLOCK TIME=        0.0 SECONDS, CPU UTILIZATION IS 100.00%

          ********************
          1 ELECTRON INTEGRALS
          ********************
 TIME TO DO   DIPOLE INTEGRALS=      0.10
 ...... END OF ONE-ELECTRON INTEGRALS ......
 STEP CPU TIME =     0.10 TOTAL CPU TIME =        0.2 (    0.0 MIN)
 TOTAL WALL CLOCK TIME=        0.0 SECONDS, CPU UTILIZATION IS 100.00%

          -------------
          GUESS OPTIONS
          -------------
          GUESS =MOREAD            NORB  =     370          NORDER=       0
          MIX   =       F          PRTMO =       F          PUNMO =       F
          TOLZ  = 1.0E-08          TOLE  = 1.0E-05
          SYMDEN=       F          PURIFY=       F

 INITIAL GUESS ORBITALS GENERATED BY MOREAD   ROUTINE.

 STATISTICS FOR GENERATION OF SYMMETRY ORBITAL -Q- MATRIX
 NUMBER OF CARTESIAN ATOMIC ORBITALS=        392
 NUMBER OF SPHERICAL CONTAMINANTS DROPPED=    22
 NUMBER OF LINEARLY DEPENDENT MOS DROPPED=     0
 TOTAL NUMBER OF MOS IN VARIATION SPACE=     370

                    * * * * * WARNING * * * * *
 POSSIBLE LINEAR DEPENDENCE PROBLEMS DETECTED, INPUT QMTTOL= 1.0E-06,
 WITH     7 OVERLAP EIGENVALUES LYING BETWEEN 1.0E-05 AND QMTTOL.
 IF YOU EXPERIENCE SCF CONVERGENCE DIFFICULTIES WITH THE DENSITY ALMOST BUT
 NOT QUITE CONVERGED, YOU MAY NEED TO LOOSEN -QMTTOL- BY A FACTOR 5 TO 10.

 SYMMETRIES FOR INITIAL GUESS ORBITALS FOLLOW.   BOTH SET(S).
    41 ORBITALS ARE OCCUPIED (   11 CORE ORBITALS).
     1=A        2=A        3=A        4=A        5=A        6=A        7=A   
     8=A        9=A       10=A       11=A       12=A       13=A       14=A   
    15=A       16=A       17=A       18=A       19=A       20=A       21=A   
    22=A       23=A       24=A       25=A       26=A       27=A       28=A   
    29=A       30=A       31=A       32=A       33=A       34=A       35=A   
    36=A       37=A       38=A       39=A       40=A       41=A       42=A   
    43=A       44=A       45=A       46=A       47=A       48=A       49=A   
    50=A       51=A       52=A       53=A       54=A       55=A       56=A   
    57=A       58=A       59=A       60=A       61=A       62=A       63=A   
    64=A       65=A       66=A       67=A       68=A       69=A       70=A   
    71=A       72=A       73=A       74=A       75=A       76=A       77=A   
    78=A       79=A       80=A       81=A       82=A       83=A       84=A   
    85=A       86=A       87=A       88=A       89=A       90=A       91=A   
    92=A       93=A       94=A       95=A       96=A       97=A       98=A   
    99=A      100=A      101=A      102=A      103=A      104=A      105=A   
   106=A      107=A      108=A      109=A      110=A      111=A      112=A   
   113=A      114=A      115=A      116=A      117=A      118=A      119=A   
   120=A      121=A      122=A      123=A      124=A      125=A      126=A   
   127=A      128=A      129=A      130=A      131=A      132=A      133=A   
   134=A      135=A      136=A      137=A      138=A      139=A      140=A   
   141=A      142=A      143=A      144=A      145=A      146=A      147=A   
   148=A      149=A      150=A      151=A      152=A      153=A      154=A   
   155=A      156=A      157=A      158=A      159=A      160=A      161=A   
   162=A      163=A      164=A      165=A      166=A      167=A      168=A   
   169=A      170=A      171=A      172=A      173=A      174=A      175=A   
   176=A      177=A      178=A      179=A      180=A      181=A      182=A   
   183=A      184=A      185=A      186=A      187=A      188=A      189=A   
   190=A      191=A      192=A      193=A      194=A      195=A      196=A   
   197=A      198=A      199=A      200=A      201=A      202=A      203=A   
   204=A      205=A      206=A      207=A      208=A      209=A      210=A   
   211=A      212=A      213=A      214=A      215=A      216=A      217=A   
   218=A      219=A      220=A      221=A      222=A      223=A      224=A   
   225=A      226=A      227=A      228=A      229=A      230=A      231=A   
   232=A      233=A      234=A      235=A      236=A      237=A      238=A   
   239=A      240=A      241=A      242=A      243=A      244=A      245=A   
   246=A      247=A      248=A      249=A      250=A      251=A      252=A   
   253=A      254=A      255=A      256=A      257=A      258=A      259=A   
   260=A      261=A      262=A      263=A      264=A      265=A      266=A   
   267=A      268=A      269=A      270=A      271=A      272=A      273=A   
   274=A      275=A      276=A      277=A      278=A      279=A      280=A   
   281=A      282=A      283=A      284=A      285=A      286=A      287=A   
   288=A      289=A      290=A      291=A      292=A      293=A      294=A   
   295=A      296=A      297=A      298=A      299=A      300=A      301=A   
   302=A      303=A      304=A      305=A      306=A      307=A      308=A   
   309=A      310=A      311=A      312=A      313=A      314=A      315=A   
   316=A      317=A      318=A      319=A      320=A      321=A      322=A   
   323=A      324=A      325=A      326=A      327=A      328=A      329=A   
   330=A      331=A      332=A      333=A      334=A      335=A      336=A   
   337=A      338=A      339=A      340=A      341=A      342=A      343=A   
   344=A      345=A      346=A      347=A      348=A      349=A      350=A   
   351=A      352=A      353=A      354=A      355=A      356=A      357=A   
   358=A      359=A      360=A      361=A      362=A      363=A      364=A   
   365=A      366=A      367=A      368=A      369=A      370=A   
 ...... END OF INITIAL ORBITAL SELECTION ......
 STEP CPU TIME =     0.24 TOTAL CPU TIME =        0.5 (    0.0 MIN)
 TOTAL WALL CLOCK TIME=        4.0 SECONDS, CPU UTILIZATION IS  11.75%

                    ----------------------
                    AO INTEGRAL TECHNOLOGY
                    ----------------------
     S,P,L SHELL ROTATED AXIS INTEGRALS, REPROGRAMMED BY
        KAZUYA ISHIMURA (IMS) AND JOSE SIERRA (SYNSTAR).
     S,P,D,L SHELL ROTATED AXIS INTEGRALS PROGRAMMED BY
        KAZUYA ISHIMURA (INSTITUTE FOR MOLECULAR SCIENCE).
     S,P,D,F,G SHELL TO TOTAL QUARTET ANGULAR MOMENTUM SUM 5,
        ERIC PROGRAM BY GRAHAM FLETCHER (ELORET AND NASA ADVANCED
        SUPERCOMPUTING DIVISION, AMES RESEARCH CENTER).
     S,P,D,F,G,L SHELL GENERAL RYS QUADRATURE PROGRAMMED BY
        MICHEL DUPUIS (PACIFIC NORTHWEST NATIONAL LABORATORY).

          --------------------
          2 ELECTRON INTEGRALS
          --------------------

 THE -PK- OPTION IS OFF, THE INTEGRALS ARE NOT IN SUPERMATRIX FORM.
 STORING   15000 INTEGRALS/RECORD ON DISK, USING 16 BYTES/INTEGRAL.
 TWO ELECTRON INTEGRAL EVALUATION REQUIRES  103926 WORDS OF MEMORY.
 SCHWARZ INEQUALITY OVERHEAD:     68090 INTEGRALS, T=        0.02
 II,JST,KST,LST =  1  1  1  1 NREC =         1 INTLOC =    1
 II,JST,KST,LST =  2  1  1  1 NREC =         1 INTLOC =    2
 II,JST,KST,LST =  3  1  1  1 NREC =         1 INTLOC =    7
 II,JST,KST,LST =  4  1  1  1 NREC =         1 INTLOC =   34
 II,JST,KST,LST =  5  1  1  1 NREC =         1 INTLOC =   67
 II,JST,KST,LST =  6  1  1  1 NREC =         1 INTLOC =  214
 II,JST,KST,LST =  7  1  1  1 NREC =         1 INTLOC =  528
 II,JST,KST,LST =  8  1  1  1 NREC =         1 INTLOC =  959
 II,JST,KST,LST =  9  1  1  1 NREC =         1 INTLOC = 2726
 II,JST,KST,LST = 10  1  1  1 NREC =         1 INTLOC = 3731
 II,JST,KST,LST = 11  1  1  1 NREC =         1 INTLOC = 7458
 II,JST,KST,LST = 12  1  1  1 NREC =         1 INTLOC = 9389
 II,JST,KST,LST = 13  1  1  1 NREC =         1 INTLOC =11685
 II,JST,KST,LST = 14  1  1  1 NREC =         2 INTLOC = 4292
 II,JST,KST,LST = 15  1  1  1 NREC =         2 INTLOC = 8039
 II,JST,KST,LST = 16  1  1  1 NREC =         3 INTLOC = 5234
 II,JST,KST,LST = 17  1  1  1 NREC =         3 INTLOC =10905
 II,JST,KST,LST = 18  1  1  1 NREC =         4 INTLOC = 3211
 II,JST,KST,LST = 19  1  1  1 NREC =         5 INTLOC = 8129
 II,JST,KST,LST = 20  1  1  1 NREC =         6 INTLOC = 3579
 II,JST,KST,LST = 21  1  1  1 NREC =         8 INTLOC = 6661
 II,JST,KST,LST = 22  1  1  1 NREC =         9 INTLOC = 3135
 II,JST,KST,LST = 23  1  1  1 NREC =        10 INTLOC = 3808
 II,JST,KST,LST = 24  1  1  1 NREC =        12 INTLOC =10805
 II,JST,KST,LST = 25  1  1  1 NREC =        14 INTLOC = 1408
 II,JST,KST,LST = 26  1  1  1 NREC =        18 INTLOC = 3402
 II,JST,KST,LST = 27  1  1  1 NREC =        19 INTLOC = 6814
 II,JST,KST,LST = 28  1  1  1 NREC =        21 INTLOC = 3985
 II,JST,KST,LST = 29  1  1  1 NREC =        24 INTLOC =14436
 II,JST,KST,LST = 30  1  1  1 NREC =        27 INTLOC = 5585
 II,JST,KST,LST = 31  1  1  1 NREC =        33 INTLOC =14060
 II,JST,KST,LST = 32  1  1  1 NREC =        35 INTLOC = 9676
 II,JST,KST,LST = 33  1  1  1 NREC =        38 INTLOC = 4374
 II,JST,KST,LST = 34  1  1  1 NREC =        43 INTLOC = 3877
 II,JST,KST,LST = 35  1  1  1 NREC =        46 INTLOC =14598
 II,JST,KST,LST = 36  1  1  1 NREC =        55 INTLOC =14981
 II,JST,KST,LST = 37  1  1  1 NREC =        58 INTLOC = 4520
 II,JST,KST,LST = 38  1  1  1 NREC =        61 INTLOC =13109
 II,JST,KST,LST = 39  1  1  1 NREC =        68 INTLOC = 6281
 II,JST,KST,LST = 40  1  1  1 NREC =        73 INTLOC =11795
 II,JST,KST,LST = 41  1  1  1 NREC =        85 INTLOC = 9560
 II,JST,KST,LST = 42  1  1  1 NREC =        88 INTLOC = 8094
 II,JST,KST,LST = 43  1  1  1 NREC =        93 INTLOC =  124
 II,JST,KST,LST = 44  1  1  1 NREC =       101 INTLOC = 1052
 II,JST,KST,LST = 45  1  1  1 NREC =       108 INTLOC = 4705
 II,JST,KST,LST = 46  1  1  1 NREC =       122 INTLOC =10624
 II,JST,KST,LST = 47  1  1  1 NREC =       126 INTLOC = 2604
 II,JST,KST,LST = 48  1  1  1 NREC =       131 INTLOC = 7162
 II,JST,KST,LST = 49  1  1  1 NREC =       140 INTLOC =14357
 II,JST,KST,LST = 50  1  1  1 NREC =       150 INTLOC = 2002
 II,JST,KST,LST = 51  1  1  1 NREC =       166 INTLOC =12270
 II,JST,KST,LST = 52  1  1  1 NREC =       170 INTLOC =12671
 II,JST,KST,LST = 53  1  1  1 NREC =       177 INTLOC =  780
 II,JST,KST,LST = 54  1  1  1 NREC =       187 INTLOC =13625
 II,JST,KST,LST = 55  1  1  1 NREC =       198 INTLOC =13671
 II,JST,KST,LST = 56  1  1  1 NREC =       218 INTLOC =  363
 II,JST,KST,LST = 57  1  1  1 NREC =       223 INTLOC = 7739
 II,JST,KST,LST = 58  1  1  1 NREC =       231 INTLOC = 6172
 II,JST,KST,LST = 59  1  1  1 NREC =       246 INTLOC =  315
 II,JST,KST,LST = 60  1  1  1 NREC =       259 INTLOC = 8562
 II,JST,KST,LST = 61  1  1  1 NREC =       283 INTLOC = 9907
 II,JST,KST,LST = 62  1  1  1 NREC =       289 INTLOC =13411
 II,JST,KST,LST = 63  1  1  1 NREC =       298 INTLOC =13342
 II,JST,KST,LST = 64  1  1  1 NREC =       315 INTLOC = 5086
 II,JST,KST,LST = 65  1  1  1 NREC =       330 INTLOC =14408
 II,JST,KST,LST = 66  1  1  1 NREC =       358 INTLOC =  267
 II,JST,KST,LST = 67  1  1  1 NREC =       369 INTLOC = 8251
 II,JST,KST,LST = 68  1  1  1 NREC =       383 INTLOC =11186
 II,JST,KST,LST = 69  1  1  1 NREC =       402 INTLOC = 6248
 II,JST,KST,LST = 70  1  1  1 NREC =       441 INTLOC =14958
 II,JST,KST,LST = 71  1  1  1 NREC =       498 INTLOC =10692
 II,JST,KST,LST = 72  1  1  1 NREC =       600 INTLOC = 6072
 II,JST,KST,LST = 73  1  1  1 NREC =       631 INTLOC = 4928
 II,JST,KST,LST = 74  1  1  1 NREC =       717 INTLOC =13120
 II,JST,KST,LST = 75  1  1  1 NREC =       886 INTLOC = 8535
 II,JST,KST,LST = 76  1  1  1 NREC =       911 INTLOC =10075
 II,JST,KST,LST = 77  1  1  1 NREC =       941 INTLOC = 3407
 II,JST,KST,LST = 78  1  1  1 NREC =       977 INTLOC = 3208
 II,JST,KST,LST = 79  1  1  1 NREC =      1060 INTLOC = 7069
 II,JST,KST,LST = 80  1  1  1 NREC =      1168 INTLOC =12896
 II,JST,KST,LST = 81  1  1  1 NREC =      1371 INTLOC =11457
 II,JST,KST,LST = 82  1  1  1 NREC =      1426 INTLOC = 5205
 II,JST,KST,LST = 83  1  1  1 NREC =      1579 INTLOC =11605
 II,JST,KST,LST = 84  1  1  1 NREC =      1880 INTLOC = 1816
 II,JST,KST,LST = 85  1  1  1 NREC =      1924 INTLOC =13718
 II,JST,KST,LST = 86  1  1  1 NREC =      1977 INTLOC =  218
 II,JST,KST,LST = 87  1  1  1 NREC =      2038 INTLOC =11987
 II,JST,KST,LST = 88  1  1  1 NREC =      2185 INTLOC = 5693
 II,JST,KST,LST = 89  1  1  1 NREC =      2369 INTLOC = 5475
 II,JST,KST,LST = 90  1  1  1 NREC =      2714 INTLOC =12507
 II,JST,KST,LST = 91  1  1  1 NREC =      2802 INTLOC = 7784
 II,JST,KST,LST = 92  1  1  1 NREC =      3048 INTLOC = 9547
 II,JST,KST,LST = 93  1  1  1 NREC =      3530 INTLOC =10848
 II,JST,KST,LST = 94  1  1  1 NREC =      3600 INTLOC = 3513
 II,JST,KST,LST = 95  1  1  1 NREC =      3681 INTLOC = 1843
 II,JST,KST,LST = 96  1  1  1 NREC =      3775 INTLOC =11921
 II,JST,KST,LST = 97  1  1  1 NREC =      4002 INTLOC =14358
 II,JST,KST,LST = 98  1  1  1 NREC =      4283 INTLOC = 5350
 II,JST,KST,LST = 99  1  1  1 NREC =      4808 INTLOC = 8301
 II,JST,KST,LST =100  1  1  1 NREC =      4938 INTLOC =11827
 II,JST,KST,LST =101  1  1  1 NREC =      5307 INTLOC = 2128
 II,JST,KST,LST =102  1  1  1 NREC =      6017 INTLOC =10243
 II,JST,KST,LST =103  1  1  1 NREC =      6113 INTLOC =13325
 II,JST,KST,LST =104  1  1  1 NREC =      6226 INTLOC =12160
 II,JST,KST,LST =105  1  1  1 NREC =      6364 INTLOC =11337
 II,JST,KST,LST =106  1  1  1 NREC =      6681 INTLOC =  470
 II,JST,KST,LST =107  1  1  1 NREC =      7086 INTLOC = 9233
 II,JST,KST,LST =108  1  1  1 NREC =      7807 INTLOC = 7675
 II,JST,KST,LST =109  1  1  1 NREC =      7991 INTLOC =14883
 II,JST,KST,LST =110  1  1  1 NREC =      8513 INTLOC = 6870
 II,JST,KST,LST =111  1  1  1 NREC =      9510 INTLOC =13119
 II,JST,KST,LST =112  1  1  1 NREC =      9632 INTLOC = 4654
 II,JST,KST,LST =113  1  1  1 NREC =      9777 INTLOC =13207
 II,JST,KST,LST =114  1  1  1 NREC =      9957 INTLOC = 7447
 II,JST,KST,LST =115  1  1  1 NREC =     10363 INTLOC = 2283
 II,JST,KST,LST =116  1  1  1 NREC =     10892 INTLOC = 8916
 II,JST,KST,LST =117  1  1  1 NREC =     11808 INTLOC =10786
 II,JST,KST,LST =118  1  1  1 NREC =     12052 INTLOC = 3885
 II,JST,KST,LST =119  1  1  1 NREC =     12745 INTLOC = 9607
 II,JST,KST,LST =120  1  1  1 NREC =     14021 INTLOC = 3025
 II,JST,KST,LST =121  1  1  1 NREC =     14169 INTLOC = 6943
 II,JST,KST,LST =122  1  1  1 NREC =     14348 INTLOC = 2769
 II,JST,KST,LST =123  1  1  1 NREC =     14573 INTLOC =11563
 II,JST,KST,LST =124  1  1  1 NREC =     15069 INTLOC = 4554
 II,JST,KST,LST =125  1  1  1 NREC =     15731 INTLOC =11115
 II,JST,KST,LST =126  1  1  1 NREC =     16842 INTLOC =  847
 II,JST,KST,LST =127  1  1  1 NREC =     17158 INTLOC = 5504
 II,JST,KST,LST =128  1  1  1 NREC =     18057 INTLOC = 3248
 II,JST,KST,LST =129  1  1  1 NREC =     19629 INTLOC = 2944
 II,JST,KST,LST =130  1  1  1 NREC =     19801 INTLOC = 5753
 II,JST,KST,LST =131  1  1  1 NREC =     20007 INTLOC = 3046
 II,JST,KST,LST =132  1  1  1 NREC =     20268 INTLOC =12373
 II,JST,KST,LST =133  1  1  1 NREC =     20837 INTLOC =12287
 II,JST,KST,LST =134  1  1  1 NREC =     21605 INTLOC =10310
 II,JST,KST,LST =135  1  1  1 NREC =     22874 INTLOC = 2375
 II,JST,KST,LST =136  1  1  1 NREC =     23260 INTLOC = 5061
 II,JST,KST,LST =137  1  1  1 NREC =     24365 INTLOC =  502
 II,JST,KST,LST =138  1  1  1 NREC =     26170 INTLOC =13596
 II,JST,KST,LST =139  1  1  1 NREC =     26368 INTLOC =13256
 II,JST,KST,LST =140  1  1  1 NREC =     26607 INTLOC = 4965
 II,JST,KST,LST =141  1  1  1 NREC =     26911 INTLOC =10399
 II,JST,KST,LST =142  1  1  1 NREC =     27567 INTLOC =13300
 II,JST,KST,LST =143  1  1  1 NREC =     28457 INTLOC = 8558
 II,JST,KST,LST =144  1  1  1 NREC =     29914 INTLOC =10169
 II,JST,KST,LST =145  1  1  1 NREC =     30378 INTLOC = 6426
 II,JST,KST,LST =146  1  1  1 NREC =     31708 INTLOC = 5236
 II,JST,KST,LST =147  1  1  1 NREC =     33781 INTLOC = 7070
 II,JST,KST,LST =148  1  1  1 NREC =     33980 INTLOC = 7032
 II,JST,KST,LST =149  1  1  1 NREC =     34220 INTLOC = 9968
 II,JST,KST,LST =150  1  1  1 NREC =     34524 INTLOC = 9665
 II,JST,KST,LST =151  1  1  1 NREC =     35174 INTLOC = 4941
 II,JST,KST,LST =152  1  1  1 NREC =     36049 INTLOC = 3074
 II,JST,KST,LST =153  1  1  1 NREC =     37490 INTLOC =10537
 II,JST,KST,LST =154  1  1  1 NREC =     37968 INTLOC = 1332
 II,JST,KST,LST =155  1  1  1 NREC =     39336 INTLOC =10032
 II,JST,KST,LST =156  1  1  1 NREC =     41345 INTLOC =11575
 II,JST,KST,LST =157  1  1  1 NREC =     41563 INTLOC =14420
 II,JST,KST,LST =158  1  1  1 NREC =     41828 INTLOC =  526
 II,JST,KST,LST =159  1  1  1 NREC =     42162 INTLOC = 3136
 II,JST,KST,LST =160  1  1  1 NREC =     42873 INTLOC =11312
 II,JST,KST,LST =161  1  1  1 NREC =     43832 INTLOC = 2317
 II,JST,KST,LST =162  1  1  1 NREC =     45407 INTLOC = 3166
 II,JST,KST,LST =163  1  1  1 NREC =     45933 INTLOC = 5440
 II,JST,KST,LST =164  1  1  1 NREC =     47440 INTLOC = 2432
 SCHWARZ INEQUALITY TEST SKIPPED  36994599 INTEGRAL BLOCKS.
 TOTAL NUMBER OF NONZERO TWO-ELECTRON INTEGRALS =           744417984
      49628 INTEGRAL RECORDS WERE STORED ON DISK FILE  8.
  ...... END OF TWO-ELECTRON INTEGRALS .....
 STEP CPU TIME =    65.93 TOTAL CPU TIME =       66.4 (    1.1 MIN)
 TOTAL WALL CLOCK TIME=       68.0 SECONDS, CPU UTILIZATION IS  97.65%

          -----------------
          MCSCF CALCULATION
          -----------------

 ----- NUCLEAR ENERGY ----- =       498.5415513784

          -----------------------     ----------------------------
          GUGA DISTINCT ROW TABLE     WRITTEN BY B.R.BROOKS,P.SAXE
          -----------------------     ----------------------------

      GROUP=C1           NPRT=       2
       FORS=       T   INTACT=       F
       FOCI=       F   MXNINT=  600000
       SOCI=       F   MXNEME=   10000
     IEXCIT=       0

      -CORE-    -INTERNAL-  -EXTERNAL-
     NFZC=   0   NDOC=   1   NEXT=   0
     NMCC=  39   NAOS=   0   NFZV=   0
                 NBOS=   0
                 NALP=   0
                 NVAL=   1

 THE MAXIMUM ELECTRON EXCITATION WILL BE   2

 SYMMETRIES FOR THE  39 CORE,   2 ACTIVE,   0 EXTERNAL MO-S ARE
     CORE= A     A     A     A     A     A     A     A     A     A   
           A     A     A     A     A     A     A     A     A     A   
           A     A     A     A     A     A     A     A     A     A   
           A     A     A     A     A     A     A     A     A   
   ACTIVE= A     A   
           DOC   VAL 

 MOLECULAR CHARGE          =    1
 NUMBER OF ALPHA ELECTRONS =   40
 NUMBER OF  BETA ELECTRONS =   40

 THE ELECTRONIC STATE IS  1-A   

 THE DISTINCT ROW TABLE HAS         5 ROWS.
  THE WAVEFUNCTION CONTAINS         3 WALKS (CSF-S).


          DETERMINANT CONTRIBUTION TO CSF'S (BETA IS MINUS)
          -------------------------------------------------
 CASE VECTOR =       1
 14

 FOR MS=S-0
 CSF      1: C(  1)= 1.000000 :   40-40
 CASE VECTOR =       2
 23

 FOR MS=S-0
 CSF      2: C(  1)=-0.707107 :  -41 40
             C(  2)= 0.707107 :   41-40
 CASE VECTOR =       3
 41

 FOR MS=S-0
 CSF      3: C(  1)= 1.000000 :   41-41

 TOTAL NUMBER OF INTEGRALS =          9
 NUMBER OF INTEGRALS/GROUP =          9
 NUMBER OF INTEGRAL GROUPS =          1
 MAXIMUM RECORD SIZES ARE     200 FOR UNIT 11      22 FOR UNIT 12
                            30001 FOR UNIT 15   30001 FOR UNIT 16
 ...... END OF -DRT- GENERATION ...... 
 STEP CPU TIME =     4.30 TOTAL CPU TIME =       70.7 (    1.2 MIN)
 TOTAL WALL CLOCK TIME=       72.0 SECONDS, CPU UTILIZATION IS  98.19%
 OPENING FILE DAFL30 WITH      81 LOGICAL RECORDS OF  153664 WORDS
 WITH A MAXIMUM OF        6156 PHYSICAL RECORDS OF    2048 WORDS

          ------------------------------
          CASSCF INTEGRAL TRANSFORMATION
          ------------------------------
 AO INTEGRALS WILL BE READ IN FROM DISK...

 ----- CHOOSING THREE STEPS TRANSFORMATION -----
 NUMBER OF WORDS USED      =   61190233
 NUMBER OF WORDS AVAILABLE = 2000000000
 NUMBER OF PASSES          =          1

 ----- NUCLEAR REPULSION ENERGY =    498.54155138
 ----- FROZEN CORE ENERGY       =   -954.68861394

 ... SYMMETRY ...           CPU =    0.09
 ... (PQ|RS) -> (PQ|KL) ... CPU =   20.57
 ... (PQ|KL) -> (IJ|KL) ... CPU =    0.01

 NUMBER OF (PQ|KL) INTEGRALS WRITTEN     107494
 NUMBER OF (IJ|KL) INTEGRALS WRITTEN          4
 ..... END OF CAS INTEGRAL TRANSFORMATION .....
 STEP CPU TIME =    20.67 TOTAL CPU TIME =       91.4 (    1.5 MIN)
 TOTAL WALL CLOCK TIME=       92.0 SECONDS, CPU UTILIZATION IS  99.32%

          ------------------------
          GUGA-CI INTEGRAL SORTING
          ------------------------

    630017 WORDS NEEDED TO SORT              9 GUGA INTEGRALS IN MEMORY
2000000000 WORDS ARE AVAILABLE
 CHOOSING IN-MEMORY SORTING...
 IN CORE ALGORITHM SORTED              3 NON-ZERO 1E- INTEGRALS
 IN CORE ALGORITHM SORTED              4 NON-ZERO 2E- INTEGRALS
 ...... END OF INTEGRAL SORTING ...... 
 STEP CPU TIME =     0.01 TOTAL CPU TIME =       91.4 (    1.5 MIN)
 TOTAL WALL CLOCK TIME=       92.0 SECONDS, CPU UTILIZATION IS  99.33%

 -------------------------     ---------------------------------------
 ENERGY MATRIX CALCULATION     WRITTEN BY B.R.BROOKS,W.D.LAIDIG,P.SAXE
 -------------------------     ---------------------------------------

 COMPUTING THE HAMILTONIAN FOR THE         3 CSF-S...

           8 IS THE TOTAL NUMBER OF GENERATED LOOPS
           8 WERE CREATED BY THE LOOP-DRIVEN ALGORITHM
           0 WERE CREATED IMPLICITLY

           8 IS THE TOTAL NUMBER OF PROCESSED LOOPS
           5     DIAGONAL LOOPS ARE STORED ON WORK15 IN     1 BUFFERS OF  10000 ELEMENTS.
           3 OFF DIAGONAL LOOPS ARE STORED ON WORK16 IN     1 BUFFERS OF  10000 ELEMENTS.
 ...... END OF ENERGY MATRIX CALCULATION ...... 
 STEP CPU TIME =     0.00 TOTAL CPU TIME =       91.4 (    1.5 MIN)
 TOTAL WALL CLOCK TIME=       92.0 SECONDS, CPU UTILIZATION IS  99.33%

          -----------------------------------------
          DAVIDSON METHOD CI-MATRIX DIAGONALIZATION
                   WRITTEN BY STEVE ELBERT
          -----------------------------------------
 NUMBER OF STATES REQUESTED =     2
 MAX. NUMB. OF EXPAN. VEC   =    30
 MAX. NUMB. IMPROVED STATES =     2
 MAX. NUMB. OF ITERATIONS   =    50
 CONVERGENCE CRITERION      =    1.0E-05

 CHOOSING TO SOLVE SECULAR EQUATION IN MEMORY
 NUMBER OF WORDS AVAILABLE = 2000000000
 NUMBER OF WORDS USED      =      31089
 ENERGY MATRIX BUFFER SIZE =      10000
 SOLUTION FOUND WITH DIRECT METHOD

 STATE #    1  ENERGY =    -457.108141101

      CSF      COEF    OCCUPANCY (IGNORING CORE)
      ---      ----    --------- --------- -----
        1    0.993016  20
        3   -0.117983  02

 STATE #    2  ENERGY =    -456.949114745

      CSF      COEF    OCCUPANCY (IGNORING CORE)
      ---      ----    --------- --------- -----
        2    1.000000  11

 RENORMALIZED DAVIDSON CORRECTION FOR     1-REFERENCE CI.
 C0SQ= 0.986080 EREF=     -457.104111 E-E(REF)=   0.004030 E(Q)=   0.000057
 GIVES A E(SD+Q) ESTIMATE OF     -457.1081979880
 ...... END OF CI-MATRIX DIAGONALIZATION ......
 STEP CPU TIME =     0.01 TOTAL CPU TIME =       91.4 (    1.5 MIN)
 TOTAL WALL CLOCK TIME=       92.0 SECONDS, CPU UTILIZATION IS  99.34%

          -------------------------------------
          2-PARTICLE DENSITY MATRIX CALCULATION
          -------------------------------------
 2 BODY DENSITY IS AN AVERAGE OF  2 STATE(S).
   STATE    WEIGHT          ENERGY
     1    0.500000     -457.1081411012
     2    0.500000     -456.9491147453
            8 -DM2- LOOPS WERE GENERATED
            8 WERE CREATED BY THE LOOP-DRIVEN ALGORITHM
            0 WERE CREATED IMPLICITLY
          1 RECORDS OF LENGTH600000 WRITTEN TO FILE 15
 ...... END OF 2-PARTICLE DENSITY MATRIX CALCULATION ......
 STEP CPU TIME =     0.01 TOTAL CPU TIME =       91.4 (    1.5 MIN)
 TOTAL WALL CLOCK TIME=       92.0 SECONDS, CPU UTILIZATION IS  99.35%

          ----------------------------------
          2-PARTICLE DENSITY MATRIX LABELING
          ----------------------------------
     647259 WORDS NEEDED TO LABEL DM2 MATRIX
          1 RECORDS OF LENGTH600000  READ FROM FILE 15
          1 RECORDS OF LENGTH 15000 WRITTEN TO FILE 16
 ...... END OF 2-PARTICLE DENSITY MATRIX LABELING ......
 STEP CPU TIME =     0.00 TOTAL CPU TIME =       91.4 (    1.5 MIN)
 TOTAL WALL CLOCK TIME=       92.0 SECONDS, CPU UTILIZATION IS  99.35%

          --------------
          -DM2- ORDERING
          --------------
      30010 WORDS NEEDED (2000000000 AVAILABLE) TO ORDER DM2 IN MEMORY
 CHOOSING IN MEMORY ORDERING...
                               1 RECORDS OF LENGTH 15000  READ FROM FILE 16
          6 DM2 VALUES IN      1 RECORDS OF LENGTH 15000 WRITTEN TO FILE 15
 ...... END OF -DM2- ORDERING ...... 
 STEP CPU TIME =     0.00 TOTAL CPU TIME =       91.4 (    1.5 MIN)
 TOTAL WALL CLOCK TIME=       92.0 SECONDS, CPU UTILIZATION IS  99.35%

          --------------------------------------
          APPROXIMATE SECOND-ORDER MCSCF PROGRAM
          --------------------------------------
          PROGRAM WRITTEN BY G.CHABAN, A.MARQUEZ, AND M.DUPUIS

  NUMBER OF WORDS NEEDED     =    1227187
  NUMBER AVAILABLE           = 2000000000

 ----- GAMMA(IJKL)*(PQ|KL) PRODUCTS ----- CPU TIME =      0.010
 ----- ORBITAL SYMMETRY             ----- CPU TIME =      0.000
 ----- FOCK OPERATORS CONSTRUCTION  ----- CPU TIME =      7.700
 ----- WARNING : CORE-ACTIVE GAP    =    0.25807
 ----- WARNING : ACTIVE-VIRTUAL GAP =    0.31487
     MICIT =   1 ASYMM =    0.022317 ROTMAX =    0.011665
 ----- EFFECTIVE FOCK + ROTATE ORBS ----- CPU TIME =      0.120
     MICIT =   2 ASYMM =    0.016806 ROTMAX =    0.002839
     MICIT =   3 ASYMM =    0.015523 ROTMAX =    0.004644
     MICIT =   4 ASYMM =    0.013532 ROTMAX =    0.005293
     MICIT =   5 ASYMM =    0.011357 ROTMAX =    0.004802
 ..... DONE WITH CASSCF ORBITAL UPDATE .....
 STEP CPU TIME =     8.85 TOTAL CPU TIME =      100.2 (    1.7 MIN)
 TOTAL WALL CLOCK TIME=      104.0 SECONDS, CPU UTILIZATION IS  96.39%

 ITER     TOTAL ENERGY      DEL(E)  LAGRANGIAN ASYMMETRY   SQCDF  MICIT   DAMP
   1     -457.028627923 -0.028627923  0.022317   41   39 1.167E-02  5   0.0000
       ----------START APPROXIMATE SECOND ORDER MCSCF----------
   2     -457.032581198 -0.003953275  0.009275   41   39 1.761E-03  1   0.0000
   3     -457.033414301 -0.000833103  0.001856   51   40 8.626E-04  1   0.0000
   4     -457.033564576 -0.000150275  0.001655   51   40 9.092E-05  1   0.0000
   5     -457.033594327 -0.000029750  0.000656   41   39 5.145E-05  1   0.0000
   6     -457.033602578 -0.000008251  0.000417   86   37 4.062E-06  1   0.0000
   7     -457.033603743 -0.000001165  0.000100   51   40 4.214E-07  1   0.0000
   8     -457.033603932 -0.000000189  0.000033   51   40 1.668E-07  1   0.0000
   9     -457.033603965 -0.000000033  0.000016   51   38 1.122E-08  1   0.0000
  10     -457.033603968 -0.000000003  0.000006   79   39 7.463E-10  1   0.0000

          --------------------
          LAGRANGIAN CONVERGED
          --------------------

 FINAL MCSCF ENERGY IS     -457.0336039682 AFTER  10 ITERATIONS

 -MCCI- BASED ON OPTIMIZED ORBITALS
 ----------------------------------

 PLEASE NOTE: IF THE ACTIVE ORBITALS ARE CANONICALIZED BELOW,
 THE FOLLOWING CI EXPANSION COEFFICIENTS AND THE DENSITY DO NOT
 CORRESPOND TO THE PRINTED ORBITALS.  THE PRINTED EXPANSIONS MATCH
 THE ORBITALS USED DURING THE LAST ITERATION.  IF YOU WISH TO SEE
 CI EXPANSIONS BASED ON THE CANONICAL (OR NATURAL) ORBITALS, YOU
 MUST RUN A CI CALCULATION WITH THAT ORBITAL CHOICE READ IN $VEC.

 STATE #    1  ENERGY =    -457.101610738

      CSF      COEF    OCCUPANCY (IGNORING CORE)
      ---      ----    --------- --------- -----
        1    0.994758  20
        2    0.000000  11
        3   -0.102260  02

 STATE #    2  ENERGY =    -456.965597198

      CSF      COEF    OCCUPANCY (IGNORING CORE)
      ---      ----    --------- --------- -----
        1    0.000000  20
        2    1.000000  11
        3    0.000000  02

 DENSITY MATRIX OVER ACTIVE MO-S

             1           2

    1    1.4895429
    2    0.0000000   0.5104571

 FORMING THE "STANDARD FOCK OPERATOR" USING INTEGRALS FROM DISK...
    39 FILLED,    2 ACTIVE, AND  329 VIRTUAL ORBITALS  WILL BE CANONICALIZED

          ----------------------
          MCSCF NATURAL ORBITALS
          ----------------------

                      1          2          3          4          5

                  -15.7358   -15.7358   -11.4464   -11.4464   -11.3913

    1  H  1  S    0.000002   0.000000   0.000000   0.000011   0.000000
    2  H  1  S   -0.001778  -0.000082   0.000003   0.000929   0.000017
    3  H  1  X    0.000000   0.000000   0.000000   0.000000   0.000000
    4  H  1  Y    0.000001  -0.000032   0.000047   0.000000  -0.000086
    5  H  1  Z   -0.000006   0.000000   0.000000  -0.000007   0.000000
    6  H  1  S   -0.000891  -0.000041  -0.000010  -0.003155   0.000029
    7  H  1  X    0.000000   0.000000   0.000000   0.000000   0.000000
    8  H  1  Y   -0.000021   0.000460   0.003361  -0.000011   0.002702
    9  H  1  Z    0.000546   0.000025  -0.000001  -0.000315  -0.000005
   10  H  2  S    0.000011  -0.000002   0.000005   0.000025  -0.000046
   11  H  2  S    0.002636  -0.000458  -0.001485  -0.000303   0.001953
   12  H  2  X    0.000000   0.000000   0.000000   0.000000   0.000000
   13  H  2  Y   -0.000005   0.000011   0.000050   0.000004   0.000025
   14  H  2  Z   -0.000013   0.000005   0.000020   0.000022   0.000038
   15  H  2  S   -0.000513  -0.000215   0.003466   0.000619  -0.001383
   16  H  2  X    0.000000   0.000000   0.000000   0.000000   0.000000
   17  H  2  Y    0.000230  -0.000277   0.002199   0.000534   0.002089
   18  H  2  Z    0.000707  -0.000164  -0.000287   0.000030   0.000896
   19  H  3  S    0.000011   0.000003  -0.000005   0.000025   0.000046
   20  H  3  S    0.002583   0.000699   0.001483  -0.000313  -0.001936
   21  H  3  X    0.000000   0.000000   0.000000   0.000000   0.000000
   22  H  3  Y    0.000004   0.000012   0.000050  -0.000004   0.000025
   23  H  3  Z   -0.000013  -0.000007  -0.000020   0.000022  -0.000037
   24  H  3  S   -0.000531   0.000167  -0.003462   0.000642   0.001387
   25  H  3  X    0.000000   0.000000   0.000000   0.000000   0.000000
   26  H  3  Y   -0.000204  -0.000297   0.002195  -0.000548   0.002089
   27  H  3  Z    0.000689   0.000229   0.000288   0.000029  -0.000888
   28  H  4  S   -0.000022   0.000006  -0.000021  -0.000005   0.000201
   29  H  4  S   -0.002463   0.001465   0.001352   0.001562  -0.002695
   30  H  4  X    0.000000   0.000000   0.000000   0.000000   0.000000
   31  H  4  Y    0.000044  -0.000040  -0.000003  -0.000029   0.000026
   32  H  4  Z    0.000015  -0.000021  -0.000011  -0.000025   0.000074
   33  H  4  S    0.001082  -0.001789   0.000158   0.003740  -0.005523
   34  H  4  X    0.000000   0.000000   0.000000   0.000000   0.000000
   35  H  4  Y   -0.000186   0.000338   0.002787   0.001369   0.001802
   36  H  4  Z    0.000465  -0.000317  -0.000366  -0.000354   0.000509
   37  H  5  S   -0.000021  -0.000008   0.000021  -0.000005  -0.000199
   38  H  5  S   -0.002318  -0.001685  -0.001341   0.001570   0.002679
   39  H  5  X    0.000000   0.000000   0.000000   0.000000   0.000000
   40  H  5  Y   -0.000040  -0.000044  -0.000003   0.000029   0.000026
   41  H  5  Z    0.000013   0.000022   0.000011  -0.000026  -0.000073
   42  H  5  S    0.000913   0.001881  -0.000133   0.003741   0.005465
   43  H  5  X    0.000000   0.000000   0.000000   0.000000   0.000000
[...]
            200  C 17  Y     -0.20440     0.22299
            201  C 17  Z      0.26193     0.27881
            202  C 17 XX      0.02613     0.05563
            203  C 17 YY      0.01459     0.16867
            204  C 17 ZZ      0.02504     0.14565
            205  C 17 XY      0.00408     0.03883
            206  C 17 XZ      0.02437     0.00598
            207  C 17 YZ      0.00000     0.04990
            208  C 17  S     -0.37028     0.04361
            209  C 17  X     -0.00153     0.02914
            210  C 17  Y      0.18435     0.04597
            211  C 17  Z      0.19228     0.03182
            212  C 17 XX     -0.12986     0.00667
            213  C 17 YY      0.01793     0.14460
            214  C 17 ZZ      0.02805     0.12065
            215  C 17 XY     -0.00008     0.16807
            216  C 17 XZ      0.11649     0.01821
            217  C 17 YZ      0.00000     0.14748
            218  C 18  S      2.00854     1.80648
            219  C 18  S      0.67255     0.44634
            220  C 18  S      0.57966     0.17313
            221  C 18  X      0.44482     0.36311
            222  C 18  Y      0.78530     0.65597
            223  C 18  Z      0.73713     0.61918
            224  C 18  X      0.34553     0.24588
            225  C 18  Y     -0.20440     0.22299
            226  C 18  Z      0.26193     0.27881
            227  C 18 XX      0.02613     0.05563
            228  C 18 YY      0.01459     0.16867
            229  C 18 ZZ      0.02504     0.14565
            230  C 18 XY      0.00408     0.03883
            231  C 18 XZ      0.02437     0.00598
            232  C 18 YZ      0.00000     0.04990
            233  C 18  S     -0.37027     0.04361
            234  C 18  X     -0.00153     0.02914
            235  C 18  Y      0.18435     0.04597
            236  C 18  Z      0.19228     0.03182
            237  C 18 XX     -0.12986     0.00667
            238  C 18 YY      0.01792     0.14460
            239  C 18 ZZ      0.02805     0.12065
            240  C 18 XY     -0.00008     0.16807
            241  C 18 XZ      0.11649     0.01821
            242  C 18 YZ      0.00000     0.14748
            243  C 19  S      2.00882     1.80519
            244  C 19  S      0.64520     0.43173
            245  C 19  S      0.14051     0.17453
            246  C 19  X      0.61636     0.50836
            247  C 19  Y      0.73691     0.62274
            248  C 19  Z      0.71484     0.60255
            249  C 19  X      0.46176     0.29635
            250  C 19  Y      0.04202     0.22434
            251  C 19  Z      0.09747     0.28292
            252  C 19 XX      0.02298     0.05476
            253  C 19 YY      0.01206     0.16299
            254  C 19 ZZ      0.01073     0.14579
            255  C 19 XY      0.00586     0.01755
            256  C 19 XZ      0.02625     0.00730
            257  C 19 YZ      0.00000     0.05637
            258  C 19  S     -0.42306     0.04398
            259  C 19  X      0.01431     0.02947
            260  C 19  Y      0.15429     0.04052
            261  C 19  Z      0.14992     0.03188
            262  C 19 XX     -0.12440     0.00700
            263  C 19 YY      0.00083     0.12481
            264  C 19 ZZ      0.02522     0.12449
            265  C 19 XY     -0.00036     0.09190
            266  C 19 XZ     -0.15584     0.01970
            267  C 19 YZ      0.00000     0.14033
            268  C 20  S      2.00882     1.80519
            269  C 20  S      0.64520     0.43173
            270  C 20  S      0.14051     0.17453
            271  C 20  X      0.61636     0.50836
            272  C 20  Y      0.73691     0.62274
            273  C 20  Z      0.71484     0.60255
            274  C 20  X      0.46176     0.29635
            275  C 20  Y      0.04202     0.22434
            276  C 20  Z      0.09747     0.28292
            277  C 20 XX      0.02298     0.05476
            278  C 20 YY      0.01206     0.16299
            279  C 20 ZZ      0.01073     0.14579
            280  C 20 XY      0.00586     0.01755
            281  C 20 XZ      0.02625     0.00730
            282  C 20 YZ      0.00000     0.05637
            283  C 20  S     -0.42306     0.04398
            284  C 20  X      0.01431     0.02947
            285  C 20  Y      0.15429     0.04052
            286  C 20  Z      0.14992     0.03188
            287  C 20 XX     -0.12440     0.00700
            288  C 20 YY      0.00083     0.12481
            289  C 20 ZZ      0.02522     0.12449
            290  C 20 XY     -0.00036     0.09190
            291  C 20 XZ     -0.15584     0.01970
            292  C 20 YZ      0.00000     0.14033
            293  C 21  S      2.00812     1.79307
            294  C 21  S      0.67751     0.44837
            295  C 21  S      0.60785     0.17081
            296  C 21  X      0.42842     0.34677
            297  C 21  Y      0.74638     0.62607
            298  C 21  Z      0.76491     0.63382
            299  C 21  X      0.24422     0.22851
            300  C 21  Y     -0.05149     0.20384
            301  C 21  Z     -0.19320     0.27028
            302  C 21 XX      0.02970     0.05242
            303  C 21 YY      0.02147     0.17914
            304  C 21 ZZ      0.04186     0.15265
            305  C 21 XY      0.00543     0.07150
            306  C 21 XZ      0.03028     0.00766
            307  C 21 YZ      0.00000     0.06364
            308  C 21  S     -0.16734     0.04234
            309  C 21  X      0.01938     0.02542
            310  C 21  Y      0.00731     0.03631
            311  C 21  Z      0.05739     0.02718
            312  C 21 XX     -0.11197     0.00626
            313  C 21 YY     -0.00706     0.15045
            314  C 21 ZZ      0.01877     0.12231
            315  C 21 XY     -0.00981     0.18982
            316  C 21 XZ     -0.06030     0.01967
            317  C 21 YZ      0.00000     0.14468
            318  C 22  S      2.00812     1.79307
            319  C 22  S      0.67751     0.44837
            320  C 22  S      0.60785     0.17081
            321  C 22  X      0.42842     0.34677
            322  C 22  Y      0.74638     0.62607
            323  C 22  Z      0.76491     0.63382
            324  C 22  X      0.24422     0.22851
            325  C 22  Y     -0.05149     0.20384
            326  C 22  Z     -0.19320     0.27028
            327  C 22 XX      0.02970     0.05242
            328  C 22 YY      0.02147     0.17914
            329  C 22 ZZ      0.04186     0.15265
            330  C 22 XY      0.00543     0.07150
            331  C 22 XZ      0.03028     0.00766
            332  C 22 YZ      0.00000     0.06364
            333  C 22  S     -0.16734     0.04234
            334  C 22  X      0.01938     0.02542
            335  C 22  Y      0.00731     0.03631
            336  C 22  Z      0.05739     0.02718
            337  C 22 XX     -0.11197     0.00626
            338  C 22 YY     -0.00706     0.15045
            339  C 22 ZZ      0.01877     0.12231
            340  C 22 XY     -0.00981     0.18982
            341  C 22 XZ     -0.06030     0.01967
            342  C 22 YZ      0.00000     0.14468
            343  N 23  S      2.00570     1.84294
            344  N 23  S      0.71177     0.48407
            345  N 23  S      0.77800     0.24204
            346  N 23  X      0.91405     0.83016
            347  N 23  Y      0.76847     0.66695
            348  N 23  Z      0.76837     0.66340
            349  N 23  X      0.74114     0.46393
            350  N 23  Y      0.28625     0.36234
            351  N 23  Z      0.29879     0.39041
            352  N 23 XX      0.00830     0.08666
            353  N 23 YY      0.00530     0.15163
            354  N 23 ZZ      0.00370     0.14171
            355  N 23 XY      0.00037     0.00497
            356  N 23 XZ      0.01221     0.00056
            357  N 23 YZ      0.00000     0.02311
            358  N 23  S     -0.09288     0.05054
            359  N 23  X      0.03874     0.03932
            360  N 23  Y      0.03299     0.04609
            361  N 23  Z     -0.00636     0.03996
            362  N 23 XX     -0.01599     0.01063
            363  N 23 YY      0.00304     0.09742
            364  N 23 ZZ      0.01537     0.06766
            365  N 23 XY      0.00118     0.04563
            366  N 23 XZ     -0.01936     0.00421
            367  N 23 YZ      0.00000     0.11529
            368  N 24  S      2.00570     1.84294
            369  N 24  S      0.71177     0.48407
            370  N 24  S      0.77800     0.24204
            371  N 24  X      0.91405     0.83016
            372  N 24  Y      0.76847     0.66695
            373  N 24  Z      0.76837     0.66340
            374  N 24  X      0.74114     0.46393
            375  N 24  Y      0.28625     0.36234
            376  N 24  Z      0.29879     0.39041
            377  N 24 XX      0.00830     0.08666
            378  N 24 YY      0.00530     0.15163
            379  N 24 ZZ      0.00370     0.14171
            380  N 24 XY      0.00037     0.00497
            381  N 24 XZ      0.01221     0.00056
            382  N 24 YZ      0.00000     0.02311
            383  N 24  S     -0.09288     0.05054
            384  N 24  X      0.03874     0.03932
            385  N 24  Y      0.03299     0.04609
            386  N 24  Z     -0.00636     0.03996
            387  N 24 XX     -0.01599     0.01063
            388  N 24 YY      0.00304     0.09742
            389  N 24 ZZ      0.01537     0.06766
            390  N 24 XY      0.00118     0.04563
            391  N 24 XZ     -0.01936     0.00421
            392  N 24 YZ      0.00000     0.11529

          ----- MULLIKEN ATOMIC OVERLAP POPULATIONS -----
          (OFF-DIAGONAL ELEMENTS NEED TO BE MULTIPLIED BY 2)

             1           2           3           4           5

    1    2.3787708
    2    0.0877446   2.0901569
    3    0.0877445  -0.1403962   2.0901575
    4   -0.2467826   0.0881371  -0.0175907   2.1363403
    5   -0.2467827  -0.0175906   0.0881375   0.0333450   2.1363419
    6   -0.0148744  -0.1192360   0.0126302   0.0674520   0.0008705
    7   -0.0148745   0.0126303  -0.1192365   0.0008705   0.0674519
    8    0.0158950  -0.0026340   0.0002642  -0.0921779  -0.0014682
    9    0.0158951   0.0002643  -0.0026341  -0.0014682  -0.0921780
   10    0.0004283   0.0005476  -0.0002388  -0.0024006  -0.0000221
   11    0.0004283  -0.0002388   0.0005476  -0.0000221  -0.0024006
   12   -0.0004712   0.0004108  -0.0000092   0.0017302   0.0000266
   13   -0.0004712  -0.0000092   0.0004107   0.0000266   0.0017302
   14   -1.1495353   0.3283141   0.3283123  -0.0397055  -0.0397061
   15    0.1703202  -1.2384122   0.1786565   0.4454956   0.1453019
   16    0.1703235   0.1786568  -1.2384114   0.1453009   0.4454940
   17    0.0595188   0.1177103   0.0456826  -0.6106616  -0.0315353
   18    0.0595188   0.0456826   0.1177104  -0.0315351  -0.6106621
   19    0.0960836   0.0673617   0.0041020  -0.2742629   0.0018224
   20    0.0960837   0.0041018   0.0673625   0.0018223  -0.2742625
   21    0.0200873   0.0671223   0.0003893  -0.0325641  -0.0033708
   22    0.0200873   0.0003894   0.0671220  -0.0033708  -0.0325638
   23   -0.0034029   0.0059194  -0.0003995   0.0284365   0.0001646
   24   -0.0034029  -0.0003995   0.0059194   0.0001646   0.0284365

             6           7           8           9          10

    6    1.9028725
    7   -0.0006382   1.9028727
    8    0.0396868  -0.0000327   1.3654023
    9   -0.0000327   0.0396868   0.0000844   1.3654021
   10    0.0254536   0.0000125   0.0174177   0.0000002   0.8396700
   11    0.0000125   0.0254535   0.0000002   0.0174177  -0.0000002
   12   -0.0057355  -0.0000009  -0.0306865  -0.0000006  -0.1821732
   13   -0.0000009  -0.0057355  -0.0000006  -0.0306865   0.0000000
   14    0.1222979   0.1222981   0.0218663   0.0218663  -0.0003664
   15   -0.0503311  -0.0241178   0.0149140  -0.0061506   0.0106839
   16   -0.0241179  -0.0503313  -0.0061506   0.0149142  -0.0005963
   17    0.9612018   0.0009932  -0.0808913   0.0027786  -0.0647384
   18    0.0009932   0.9612032   0.0027786  -0.0808913   0.0002823
   19   -0.8643191  -0.0008281   0.1849071  -0.0001970   0.1895069
   20   -0.0008281  -0.8643206  -0.0001970   0.1849074  -0.0000058
   21   -0.4517144  -0.0002437  -0.0454923   0.0001594  -0.2227709
   22   -0.0002437  -0.4517140   0.0001594  -0.0454926   0.0000049
   23   -0.0113351   0.0000172  -0.0161705  -0.0000030   0.4234533
   24    0.0000172  -0.0113354  -0.0000030  -0.0161705  -0.0000002

            11          12          13          14          15

   11    0.8396699
   12    0.0000000   0.8290173
   13   -0.1821732   0.0000000   0.8290172
   14   -0.0003664  -0.0038101  -0.0038101  14.0382284
   15   -0.0005963   0.0058103   0.0009796  -4.5266265  15.4186633
   16    0.0106840   0.0009796   0.0058102  -4.5266227  -0.0960614
   17    0.0002823  -0.0212388  -0.0002708   0.7489929  -4.5732553
   18   -0.0647386  -0.0002708  -0.0212386   0.7489902  -0.2872802
   19   -0.0000058  -0.0044689   0.0000101  -0.3121863  -0.4119619
   20    0.1895071   0.0000101  -0.0044690  -0.3121873  -0.2250304
   21    0.0000049  -0.0679052  -0.0000034  -0.1089203   0.0494868
   22   -0.2227709  -0.0000034  -0.0679053  -0.1089209   0.0855908
   23   -0.0000002   0.4404175   0.0000001   0.0152665  -0.0298043
   24    0.4234532   0.0000001   0.4404174   0.0152665  -0.0033356

            16          17          18          19          20

   16   15.4186515
   17   -0.2872807  12.4865318
   18   -4.5732518  -0.0488942  12.4865343
   19   -0.2250292  -2.9198664   0.1032516  10.8761037
   20   -0.4119581   0.1032518  -2.9198718  -0.0149110  10.8761095
   21    0.0855906  -0.0838541  -0.0297987  -1.1494681   0.0017524
   22    0.0494862  -0.0297987  -0.0838524   0.0017524  -1.1494713
   23   -0.0033356  -0.0134165   0.0013819  -0.1646522  -0.0000681
   24   -0.0298043   0.0013819  -0.0134167  -0.0000681  -0.1646517

            21          22          23          24

   21    6.7699460
   22   -0.0003538   6.7699485
   23    0.3097583   0.0000087   6.2769024
   24    0.0000087   0.3097583   0.0000000   6.2769024

          TOTAL MULLIKEN AND LOWDIN ATOMIC POPULATIONS
       ATOM         MULL.POP.    CHARGE          LOW.POP.     CHARGE
    1 H             1.598332   -0.598332         0.922806    0.077194
    2 H             1.576233   -0.576233         0.926618    0.073382
    3 H             1.576233   -0.576233         0.926618    0.073382
    4 H             1.596580   -0.596580         0.921119    0.078881
    5 H             1.596580   -0.596580         0.921119    0.078881
    6 H             1.590081   -0.590081         0.928664    0.071336
    7 H             1.590081   -0.590081         0.928664    0.071336
    8 H             1.387471   -0.387471         0.904983    0.095017
    9 H             1.387471   -0.387471         0.904983    0.095017
   10 H             1.034148   -0.034148         0.918838    0.081162
   11 H             1.034148   -0.034148         0.918838    0.081162
   12 H             0.961628    0.038372         0.916936    0.083064
   13 H             0.961628    0.038372         0.916936    0.083064
   14 C             5.378936    0.621064         6.030947   -0.030947
   15 C             5.052939    0.947061         6.041049   -0.041049
   16 C             5.052940    0.947060         6.041049   -0.041049
   17 C             5.762624    0.237376         6.032764   -0.032764
   18 C             5.762625    0.237375         6.032764   -0.032764
   19 C             5.182676    0.817324         6.047532   -0.047532
   20 C             5.182676    0.817324         6.047532   -0.047532
   21 C             5.107846    0.892154         6.013012   -0.013012
   22 C             5.107846    0.892154         6.013012   -0.013012
   23 N             7.259138   -0.259138         6.871610    0.128390
   24 N             7.259138   -0.259138         6.871610    0.128390

          MULLIKEN SPHERICAL HARMONIC POPULATIONS
       ATOM           S       P       D      F      G      H      I    TOTAL
    1 H             1.59    0.01    0.00   0.00   0.00   0.00   0.00    1.60
    2 H             1.56    0.01    0.00   0.00   0.00   0.00   0.00    1.58
    3 H             1.56    0.01    0.00   0.00   0.00   0.00   0.00    1.58
    4 H             1.60    0.00    0.00   0.00   0.00   0.00   0.00    1.60
    5 H             1.60    0.00    0.00   0.00   0.00   0.00   0.00    1.60
    6 H             1.57    0.02    0.00   0.00   0.00   0.00   0.00    1.59
    7 H             1.57    0.02    0.00   0.00   0.00   0.00   0.00    1.59
    8 H             1.37    0.02    0.00   0.00   0.00   0.00   0.00    1.39
    9 H             1.37    0.02    0.00   0.00   0.00   0.00   0.00    1.39
   10 H             0.99    0.04    0.00   0.00   0.00   0.00   0.00    1.03
   11 H             0.99    0.04    0.00   0.00   0.00   0.00   0.00    1.03
   12 H             0.94    0.02    0.00   0.00   0.00   0.00   0.00    0.96
   13 H             0.94    0.02    0.00   0.00   0.00   0.00   0.00    0.96
   14 C             2.57    2.82    0.00   0.00   0.00   0.00   0.00    5.38
   15 C             2.49    2.73   -0.17   0.00   0.00   0.00   0.00    5.05
   16 C             2.49    2.73   -0.17   0.00   0.00   0.00   0.00    5.05
   17 C             2.89    2.75    0.13   0.00   0.00   0.00   0.00    5.76
   18 C             2.89    2.75    0.13   0.00   0.00   0.00   0.00    5.76
   19 C             2.37    2.99   -0.18   0.00   0.00   0.00   0.00    5.18
   20 C             2.37    2.99   -0.18   0.00   0.00   0.00   0.00    5.18
   21 C             3.13    2.02   -0.04   0.00   0.00   0.00   0.00    5.11
   22 C             3.13    2.02   -0.04   0.00   0.00   0.00   0.00    5.11
   23 N             3.40    3.84    0.01   0.00   0.00   0.00   0.00    7.26
   24 N             3.40    3.84    0.01   0.00   0.00   0.00   0.00    7.26

          ---------------------
          ELECTROSTATIC MOMENTS
          ---------------------

 POINT   1           X           Y           Z (BOHR)    CHARGE
                 0.000000    0.000000   -0.005040        1.00 (A.U.)
         DX          DY          DZ         /D/  (DEBYE)
     0.000000    0.000000    1.276471    1.276471
 ...... END OF PROPERTY EVALUATION ......
 STEP CPU TIME =     0.29 TOTAL CPU TIME =      361.2 (    6.0 MIN)
 TOTAL WALL CLOCK TIME=      364.0 SECONDS, CPU UTILIZATION IS  99.22%
              61190233  WORDS OF DYNAMIC MEMORY USED
 EXECUTION OF GAMESS TERMINATED NORMALLY Tue Sep 19 12:09:44 2017
 DDI: 1128 bytes (0.0 MB / 0 MWords) used by master data server.

 ----------------------------------------
 CPU timing information for all processes
 ========================================
 0: 317.151820 + 44.742796 = 361.894616
 ----------------------------------------
 ddikick.x: exited gracefully.
----- accounting info -----
Tue Sep 19 12:09:47 CEST 2017
Files used on the master node lpqlx139 were:
-rw-r--r-- 1 scemama scemama     2615618 Sep 19 12:09 /dev/shm//gamess/C9.dat
-rw-r--r-- 1 scemama scemama     2354983 Sep 19 12:03 /dev/shm//gamess/C9.F05
-rw-r--r-- 1 scemama scemama 11911514048 Sep 19 12:04 /dev/shm//gamess/C9.F08
-rw-r--r-- 1 scemama scemama      856248 Sep 19 12:09 /dev/shm//gamess/C9.F09
-rw-r--r-- 1 scemama scemama    64000320 Sep 19 12:09 /dev/shm//gamess/C9.F10
-rw-r--r-- 1 scemama scemama      268000 Sep 19 12:04 /dev/shm//gamess/C9.F11
-rw-r--r-- 1 scemama scemama         248 Sep 19 12:09 /dev/shm//gamess/C9.F12
-rw-r--r-- 1 scemama scemama     1293200 Sep 19 12:09 /dev/shm//gamess/C9.F13
-rw-r--r-- 1 scemama scemama     4800008 Sep 19 12:09 /dev/shm//gamess/C9.F14
-rw-r--r-- 1 scemama scemama      246912 Sep 19 12:09 /dev/shm//gamess/C9.F15
-rw-r--r-- 1 scemama scemama      246912 Sep 19 12:09 /dev/shm//gamess/C9.F16
-rw-r--r-- 1 scemama scemama     2605056 Sep 19 12:09 /dev/shm//gamess/C9.F23
0.076u 0.720s 6:06.92 0.2%	0+0k 40+16io 2pf+0w
