----- GAMESS execution script -----
This job is running on host lpqlx139
under operating system Linux at Tue Sep 26 14:48:47 CEST 2017
Available scratch disk space (Kbyte units) at beginning of the job is
Filesystem     1K-blocks    Used Available Use% Mounted on
tmpfs            6592140 2721476   3870664  42% /run/shm

 Distributed Data Interface kickoff program.
 Initiating 1 compute processes on 1 nodes to run the following command:
 /usr/local/gamess/gamess.01.x C1 

          ******************************************************
          *         GAMESS VERSION = 22 FEB 2006 (R5)          *
          *             FROM IOWA STATE UNIVERSITY             *
          * M.W.SCHMIDT, K.K.BALDRIDGE, J.A.BOATZ, S.T.ELBERT, *
          *   M.S.GORDON, J.H.JENSEN, S.KOSEKI, N.MATSUNAGA,   *
          *          K.A.NGUYEN, S.J.SU, T.L.WINDUS,           *
          *       TOGETHER WITH M.DUPUIS, J.A.MONTGOMERY       *
          *         J.COMPUT.CHEM.  14, 1347-1363(1993)        *
          ***************** AMD 64 BIT VERSION *****************

     SINCE 1993, STUDENTS AND POSTDOCS WORKING AT IOWA STATE UNIVERSITY
     AND ALSO IN THEIR VARIOUS JOBS AFTER LEAVING ISU HAVE MADE IMPORTANT
     CONTRIBUTIONS TO THE CODE:
     IVANA ADAMOVIC, CHRISTINE AIKENS, YURI ALEXEEV, POOJA ARORA, ROB BELL,
     PRADIPTA BANDYOPADHYAY, BRETT BODE, GALINA CHABAN, WEI CHEN,
     CHEOL HO CHOI, PAUL DAY, TIM DUDLEY, DMITRI FEDOROV, GRAHAM FLETCHER,
     MARK FREITAG, KURT GLAESEMANN, GRANT MERRILL, TAKESHI NAGATA,
     HEATHER NETZLOFF, BOSILJKA NJEGIC, RYAN OLSON, MIKE PAK, JIM SHOEMAKER,
     LYUDMILA SLIPCHENKO, JIE SONG, TETSUYA TAKETSUGU, SIMON WEBB.

     ADDITIONAL CODE HAS BEEN PROVIDED BY COLLABORATORS IN OTHER GROUPS:
     IOWA STATE UNIVERSITY: JOE IVANIC, KLAUS RUEDENBERG
     UNIVERSITY OF TOKYO: KIMIHIKO HIRAO, HARUYUKI NAKANO, TAKAHITO
          NAKAJIMA, TAKAO TSUNEDA, MUNEAKI KAMIYA, SUSUMU YANAGISAWA,
          KIYOSHI YAGI
     UNIVERSITY OF SOUTHERN DENMARK: FRANK JENSEN
     UNIVERSITY OF IOWA: VISVALDAS KAIRYS, HUI LI
     NATIONAL INST. OF STANDARDS AND TECHNOLOGY: WALT STEVENS, DAVID GARMER
     UNIVERSITY OF PISA: BENEDETTA MENNUCCI, JACOPO TOMASI
     UNIVERSITY OF MEMPHIS: HENRY KURTZ, PRAKASHAN KORAMBATH
     UNIVERSITY OF ALBERTA: MARIUSZ KLOBUKOWSKI
     UNIVERSITY OF NEW ENGLAND: MARK SPACKMAN
     MIE UNIVERSITY: HIROAKI UMEDA
     MICHIGAN STATE UNIVERSITY:
          KAROL KOWALSKI, MARTA WLOCH, PIOTR PIECUCH
     UNIVERSITY OF SILESIA: MONIKA MUSIAL, STANISLAW KUCHARSKI
     FACULTES UNIVERSITAIRES NOTRE-DAME DE LA PAIX:
          OLIVIER QUINET, BENOIT CHAMPAGNE
     UNIVERSITY OF CALIFORNIA - SANTA BARBARA: BERNARD KIRTMAN
     INSTITUTE FOR MOLECULAR SCIENCE: KAZUYA ISHIMURA AND SHIGERU NAGASE
     UNIVERSITY OF NOTRE DAME: DAN CHIPMAN
     KYUSHU UNIVERSITY:
          FENG LONG GU, JACEK KORCHOWIEC, MARCIN MAKOWSKI, AND YURIKO AOKI
     PENNSYLVANIA STATE UNIVERSITY:
          TZVETELIN IORDANOV, CHET SWALINA, SHARON HAMMES-SCHIFFER

 EXECUTION OF GAMESS BEGUN Tue Sep 26 14:48:47 2017

            ECHO OF THE FIRST FEW INPUT CARDS -
 INPUT CARD> $CONTRL                                                                        
 INPUT CARD>   EXETYP=RUN COORD=CART    UNITS=ANGS                                          
 INPUT CARD>   RUNTYP=ENERGY SCFTYP=RHF CITYP=NONE                                          
 INPUT CARD>   MAXIT=100                                                                    
 INPUT CARD>   ISPHER=1                                                                     
 INPUT CARD>   MULT=1                                                                       
 INPUT CARD>   ICHARG=1                                                                     
 INPUT CARD>   MPLEVL=0                                                                     
 INPUT CARD>   ECP=READ                                                                     
 INPUT CARD> $END                                                                           
 INPUT CARD>                                                                                
 INPUT CARD> $GUESS                                                                         
 INPUT CARD>  GUESS=HUCKEL                                                                  
 INPUT CARD> $END                                                                           
 INPUT CARD>                                                                                
 INPUT CARD> $BASIS                                                                         
 INPUT CARD>  EXTFIL=.TRUE.                                                                 
 INPUT CARD>  GBASIS=BASIS                                                                  
 INPUT CARD> $END                                                                           
 INPUT CARD>                                                                                
 INPUT CARD> $DATA                                                                          
 INPUT CARD>C1                                                                              
 INPUT CARD>C1                                                                              
 INPUT CARD>H  1.0   0.000000    0.000000    1.508704                                       
 INPUT CARD>H  1.0   0.000000    1.258360   -1.178487                                       
 INPUT CARD>H  1.0   0.000000   -1.258360   -1.178487                                       
 INPUT CARD>H  1.0   0.000000    2.005112    0.371143                                       
 INPUT CARD>H  1.0   0.000000   -2.005112    0.371143                                       
 INPUT CARD>C  6.0   0.000000    0.000000    0.424165                                       
 INPUT CARD>N  7.0   0.000000    1.158087   -0.174215                                       
 INPUT CARD>N  7.0   0.000000   -1.158087   -0.174215                                       
 INPUT CARD> $END                                                                           
 INPUT CARD>                                                                                
 INPUT CARD> $ECP                                                                           
 INPUT CARD>H GEN 0 0                                                                       
 INPUT CARD>3                                                                               
 INPUT CARD>1.00000000 1 4.47692410                                                         
 INPUT CARD>4.47692410 3 2.97636451                                                         
 INPUT CARD>-4.32112340 2 3.01841596                                                        
 INPUT CARD>H GEN 0 0                                                                       
 INPUT CARD>H GEN 0 0                                                                       
 INPUT CARD>H GEN 0 0                                                                       
 INPUT CARD>H GEN 0 0                                                                       
 INPUT CARD>C GEN 2 1                                                                       
 INPUT CARD>3                                                                               
 INPUT CARD>4.00000000 1 8.35973821                                                         
 INPUT CARD>33.43895285 3 4.48361888                                                        
 INPUT CARD>-19.17537323 2 3.93831258                                                       
 INPUT CARD>1                                                                               
 INPUT CARD>22.55164191 2 5.02991637                                                        

 ..... DONE SETTING UP THE RUN .....
    1000000 WORDS OF MEMORY AVAILABLE

     $BASIS REQUESTS READING THE "BASIS   " BASIS SET FROM AN EXTERNAL FILE


     RUN TITLE
     ---------
 C1                                                                              

 THE POINT GROUP OF THE MOLECULE IS C1      
 THE ORDER OF THE PRINCIPAL AXIS IS     0

 THE MOMENTS OF INERTIA ARE (AMU-ANGSTROM**2)
 IXX=    57.236   IYY=     8.380   IZZ=    48.856

 THE EXTERNAL BASIS SET FILE BEING READ IS
     "/home/scemama/Cyanines/Runs/AVDZ_Pseudo/BASIS"
 *** WARNING! ATOM   1 SHELL    1 TYPE S HAS NORMALIZATION   1.32259418
 *** WARNING! ATOM   1 SHELL    3 TYPE P HAS NORMALIZATION  22.65171974
 *** WARNING! ATOM   2 SHELL    6 TYPE S HAS NORMALIZATION   1.32259418
 *** WARNING! ATOM   2 SHELL    8 TYPE P HAS NORMALIZATION  22.65171974
 *** WARNING! ATOM   3 SHELL   11 TYPE S HAS NORMALIZATION   1.32259418
 *** WARNING! ATOM   3 SHELL   13 TYPE P HAS NORMALIZATION  22.65171974
 *** WARNING! ATOM   4 SHELL   16 TYPE S HAS NORMALIZATION   1.32259418
 *** WARNING! ATOM   4 SHELL   18 TYPE P HAS NORMALIZATION  22.65171974
 *** WARNING! ATOM   5 SHELL   21 TYPE S HAS NORMALIZATION   1.32259418
 *** WARNING! ATOM   5 SHELL   23 TYPE P HAS NORMALIZATION  22.65171974

 ATOM      ATOMIC                      COORDINATES (BOHR)
           CHARGE         X                   Y                   Z
 H           1.0     0.0000000000        0.0000000000        2.8466709484
 H           1.0     0.0000000000        2.3779555939       -2.2313837182
 H           1.0     0.0000000000       -2.3779555939       -2.2313837182
 H           1.0     0.0000000000        3.7891122547        0.6969923641
 H           1.0     0.0000000000       -3.7891122547        0.6969923641
 C           6.0     0.0000000000        0.0000000000        0.7971894154
 N           7.0     0.0000000000        2.1884670999       -0.3335848211
 N           7.0     0.0000000000       -2.1884670999       -0.3335848211

          INTERNUCLEAR DISTANCES (ANGS.)
          ------------------------------

                    H              H              H              H         

  1  H               0.0000000      2.9672319 *    2.9672319 *    2.3053241 *  
  2  H               2.9672319 *    0.0000000      2.5167200 *    1.7201720 *  
  3  H               2.9672319 *    2.5167200 *    0.0000000      3.6127002    
  4  H               2.3053241 *    1.7201720 *    3.6127002      0.0000000    
  5  H               2.3053241 *    3.6127002      1.7201720 *    4.0102240    
  6  C               1.0845390 *    2.0376367 *    2.0376367 *    2.0058129 *  
  7  N               2.0428857 *    1.0092655 *    2.6168260 *    1.0074059 *  
  8  N               2.0428857 *    2.6168260 *    1.0092655 *    3.2098665    

                    H              C              N              N         

  1  H               2.3053241 *    1.0845390 *    2.0428857 *    2.0428857 *  
  2  H               3.6127002      2.0376367 *    1.0092655 *    2.6168260 *  
  3  H               1.7201720 *    2.0376367 *    2.6168260 *    1.0092655 *  
  4  H               4.0102240      2.0058129 *    1.0074059 *    3.2098665    
  5  H               0.0000000      2.0058129 *    3.2098665      1.0074059 *  
  6  C               2.0058129 *    0.0000000      1.3035429 *    1.3035429 *  
  7  N               3.2098665      1.3035429 *    0.0000000      2.3161740 *  
  8  N               1.0074059 *    1.3035429 *    2.3161740 *    0.0000000    

  * ... LESS THAN  3.000


     ATOMIC BASIS SET
     ----------------
 THE CONTRACTED PRIMITIVE FUNCTIONS HAVE BEEN UNNORMALIZED
 THE CONTRACTED BASIS FUNCTIONS ARE NOW NORMALIZED TO UNITY

  SHELL TYPE  PRIMITIVE        EXPONENT          CONTRACTION COEFFICIENT(S)

 H         

      1   S       1             0.0130000    0.000933751491
      1   S       2             0.0299000   -0.002802577067
      1   S       3             0.0687700    0.076304426024
      1   S       4             0.1581700    0.305115864344
      1   S       5             0.3637920    0.367168015485
      1   S       6             0.8367210    0.224620137364
      1   S       7             1.9244580    0.128877544677
      1   S       8             4.4262540    0.039632857196
      1   S       9            10.1803850   -0.000597812569

      2   S      10             0.1704830    1.000000000000

      3   P      11             0.0030000    0.028133435917
      3   P      12             0.0078000   -0.020681020122
      3   P      13             0.0202810   -0.001223192866
      3   P      14             0.0527300   -0.005391109298
      3   P      15             0.1370970   -0.261174328600
      3   P      16             0.3564510   -0.413054109456
      3   P      17             0.9267740   -0.315515804256
      3   P      18             2.4096120   -0.212812906956
      3   P      19             6.2649910   -0.007860146750

      4   S      20             0.0297400    1.000000000000

      5   P      21             0.1410000    1.000000000000

 H         

      6   S      22             0.0130000    0.000933751491
      6   S      23             0.0299000   -0.002802577067
      6   S      24             0.0687700    0.076304426024
      6   S      25             0.1581700    0.305115864344
      6   S      26             0.3637920    0.367168015485
      6   S      27             0.8367210    0.224620137364
      6   S      28             1.9244580    0.128877544677
      6   S      29             4.4262540    0.039632857196
      6   S      30            10.1803850   -0.000597812569

      7   S      31             0.1704830    1.000000000000

      8   P      32             0.0030000    0.028133435917
      8   P      33             0.0078000   -0.020681020122
      8   P      34             0.0202810   -0.001223192866
      8   P      35             0.0527300   -0.005391109298
      8   P      36             0.1370970   -0.261174328600
      8   P      37             0.3564510   -0.413054109456
      8   P      38             0.9267740   -0.315515804256
      8   P      39             2.4096120   -0.212812906956
      8   P      40             6.2649910   -0.007860146750

      9   S      41             0.0297400    1.000000000000

     10   P      42             0.1410000    1.000000000000

 H         

     11   S      43             0.0130000    0.000933751491
     11   S      44             0.0299000   -0.002802577067
     11   S      45             0.0687700    0.076304426024
     11   S      46             0.1581700    0.305115864344
     11   S      47             0.3637920    0.367168015485
     11   S      48             0.8367210    0.224620137364
     11   S      49             1.9244580    0.128877544677
     11   S      50             4.4262540    0.039632857196
     11   S      51            10.1803850   -0.000597812569

     12   S      52             0.1704830    1.000000000000

     13   P      53             0.0030000    0.028133435917
     13   P      54             0.0078000   -0.020681020122
     13   P      55             0.0202810   -0.001223192866
     13   P      56             0.0527300   -0.005391109298
     13   P      57             0.1370970   -0.261174328600
     13   P      58             0.3564510   -0.413054109456
     13   P      59             0.9267740   -0.315515804256
     13   P      60             2.4096120   -0.212812906956
     13   P      61             6.2649910   -0.007860146750

     14   S      62             0.0297400    1.000000000000

     15   P      63             0.1410000    1.000000000000

 H         

     16   S      64             0.0130000    0.000933751491
     16   S      65             0.0299000   -0.002802577067
     16   S      66             0.0687700    0.076304426024
     16   S      67             0.1581700    0.305115864344
     16   S      68             0.3637920    0.367168015485
     16   S      69             0.8367210    0.224620137364
     16   S      70             1.9244580    0.128877544677
     16   S      71             4.4262540    0.039632857196
     16   S      72            10.1803850   -0.000597812569

     17   S      73             0.1704830    1.000000000000

     18   P      74             0.0030000    0.028133435917
     18   P      75             0.0078000   -0.020681020122
     18   P      76             0.0202810   -0.001223192866
     18   P      77             0.0527300   -0.005391109298
     18   P      78             0.1370970   -0.261174328600
     18   P      79             0.3564510   -0.413054109456
     18   P      80             0.9267740   -0.315515804256
     18   P      81             2.4096120   -0.212812906956
     18   P      82             6.2649910   -0.007860146750

     19   S      83             0.0297400    1.000000000000

     20   P      84             0.1410000    1.000000000000

 H         

     21   S      85             0.0130000    0.000933751491
     21   S      86             0.0299000   -0.002802577067
     21   S      87             0.0687700    0.076304426024
     21   S      88             0.1581700    0.305115864344
     21   S      89             0.3637920    0.367168015485
     21   S      90             0.8367210    0.224620137364
     21   S      91             1.9244580    0.128877544677
     21   S      92             4.4262540    0.039632857196
     21   S      93            10.1803850   -0.000597812569

     22   S      94             0.1704830    1.000000000000

     23   P      95             0.0030000    0.028133435917
     23   P      96             0.0078000   -0.020681020122
     23   P      97             0.0202810   -0.001223192866
     23   P      98             0.0527300   -0.005391109298
     23   P      99             0.1370970   -0.261174328600
     23   P     100             0.3564510   -0.413054109456
     23   P     101             0.9267740   -0.315515804256
     23   P     102             2.4096120   -0.212812906956
     23   P     103             6.2649910   -0.007860146750

     24   S     104             0.0297400    1.000000000000

     25   P     105             0.1410000    1.000000000000

 C         

     26   S     106             0.0513440    0.013990987871
     26   S     107             0.1026190    0.169851852753
     26   S     108             0.2051000    0.397528655377
     26   S     109             0.4099240    0.380368670253
     26   S     110             0.8192970    0.180112843858
     26   S     111             1.6374940   -0.033511970948
     26   S     112             3.2727910   -0.121498894671
     26   S     113             6.5411870    0.015175986844
     26   S     114            13.0735940   -0.000704999389

     27   S     115             0.1278520    1.000000000000

     28   P     116             0.0292810    0.001787000047
     28   P     117             0.0585470    0.050426001336
     28   P     118             0.1170630    0.191634005079
     28   P     119             0.2340640    0.302667008021
     28   P     120             0.4680030    0.289868007682
     28   P     121             0.9357570    0.210979005591
     28   P     122             1.8710160    0.112024002969
     28   P     123             3.7410350    0.054425001442
     28   P     124             7.4800760    0.021931000581

     29   P     125             0.1491610    1.000000000000

     30   D     126             0.5611600    1.000000000000

     31   S     127             0.0469000    1.000000000000

     32   P     128             0.0404100    1.000000000000

     33   D     129             0.1510000    1.000000000000

 N         

     34   S     130             0.0988690    0.067266010234
     34   S     131             0.2114430    0.334290050859
     34   S     132             0.4521970    0.454257069111
     34   S     133             0.9670800    0.267861040752
     34   S     134             2.0682210    0.000248000038
     34   S     135             4.4231500   -0.132606020175
     34   S     136             9.4594620    0.014437002196
     34   S     137            20.2302460    0.000359000055
     34   S     138            43.2649190   -0.000094000014

     35   S     139             0.1751230    1.000000000000

     36   P     140             0.0732340    0.035757988749
     36   P     141             0.1458670    0.153944951562
     36   P     142             0.2905350    0.277655912638
     36   P     143             0.5786830    0.297675906338
     36   P     144             1.1526120    0.234402926247
     36   P     145             2.2957560    0.140320955849
     36   P     146             4.5726520    0.067218978850
     36   P     147             9.1077390    0.031593990059
     36   P     148            18.1406570    0.003300998961

     37   P     149             0.2230420    1.000000000000

     38   D     150             0.8320580    1.000000000000

     39   S     151             0.0612400    1.000000000000

     40   P     152             0.0561100    1.000000000000

     41   D     153             0.2300000    1.000000000000

 N         

     42   S     154             0.0988690    0.067266010234
     42   S     155             0.2114430    0.334290050859
     42   S     156             0.4521970    0.454257069111
     42   S     157             0.9670800    0.267861040752
     42   S     158             2.0682210    0.000248000038
     42   S     159             4.4231500   -0.132606020175
     42   S     160             9.4594620    0.014437002196
     42   S     161            20.2302460    0.000359000055
     42   S     162            43.2649190   -0.000094000014

     43   S     163             0.1751230    1.000000000000

     44   P     164             0.0732340    0.035757988749
     44   P     165             0.1458670    0.153944951562
     44   P     166             0.2905350    0.277655912638
     44   P     167             0.5786830    0.297675906338
     44   P     168             1.1526120    0.234402926247
     44   P     169             2.2957560    0.140320955849
     44   P     170             4.5726520    0.067218978850
     44   P     171             9.1077390    0.031593990059
     44   P     172            18.1406570    0.003300998961

     45   P     173             0.2230420    1.000000000000

     46   D     174             0.8320580    1.000000000000

     47   S     175             0.0612400    1.000000000000

     48   P     176             0.0561100    1.000000000000

     49   D     177             0.2300000    1.000000000000

 TOTAL NUMBER OF BASIS SET SHELLS             =   49
 NUMBER OF CARTESIAN GAUSSIAN BASIS FUNCTIONS =  117
 NOTE: THIS RUN WILL RESTRICT THE MO VARIATION SPACE TO SPHERICAL HARMONICS.
 THE NUMBER OF ORBITALS KEPT IN THE VARIATIONAL SPACE WILL BE PRINTED LATER.
 NUMBER OF ELECTRONS                          =   24
 CHARGE OF MOLECULE                           =    1
 SPIN MULTIPLICITY                            =    1
 NUMBER OF OCCUPIED ORBITALS (ALPHA)          =   12
 NUMBER OF OCCUPIED ORBITALS (BETA )          =   12
 TOTAL NUMBER OF ATOMS                        =    8
 THE NUCLEAR REPULSION ENERGY IS       80.0312601802
 NOTE THIS RUN IS USING CORE POTENTIALS, AND THE NUMBER OF ELECTRONS,
 OCCUPIED ORBITALS, AND NUCLEAR REPULSION ENERGY WILL BE ADJUSTED BELOW
 AFTER REMOVAL OF THE CORE CHARGES.

     $CONTRL OPTIONS
     ---------------
 SCFTYP=RHF          RUNTYP=ENERGY       EXETYP=RUN     
 MPLEVL=       0     CITYP =NONE         CCTYP =NONE         VBTYP =NONE    
 MULT  =       1     ICHARG=       1     NZVAR =       0     COORD =CART    
 PP    =READ         RELWFN=NONE         LOCAL =NONE         NUMGRD=       F
 ISPHER=       1     NOSYM =       0     MAXIT =     100     UNITS =ANGS    
 PLTORB=       F     MOLPLT=       F     AIMPAC=       F     FRIEND=        
 NPRINT=       7     IREST =       0     GEOM  =INPUT   
 NORMF =       0     NORMP =       0     ITOL  =      20     ICUT  =       9
 INTTYP=BEST         GRDTYP=BEST         QMTTOL= 1.0E-06

     $SYSTEM OPTIONS
     ---------------
  REPLICATED MEMORY=     1000000 WORDS (ON EVERY NODE).
 DISTRIBUTED MEMDDI=           0 MILLION WORDS IN AGGREGATE,
 MEMDDI DISTRIBUTED OVER   1 PROCESSORS IS           0 WORDS/PROCESSOR.
 TOTAL MEMORY REQUESTED ON EACH PROCESSOR=     1000000 WORDS.
 TIMLIM=      525600.00 MINUTES, OR   365.00 DAYS.
 PARALL= F  BALTYP=  NXTVAL  KDIAG=    0  COREFL= F

          --------------
          ECP POTENTIALS
          --------------

 PARAMETERS FOR "H       " ON ATOM    1 WITH ZCORE   0 AND LMAX  0 ARE
 FOR L= 0      COEFF    N           ZETA
    1        1.00000    1        4.47692
    2        4.47692    3        2.97636
    3       -4.32112    2        3.01842

 PARAMETERS FOR "H       " ON ATOM    2 ARE THE SAME AS ATOM   1

 PARAMETERS FOR "H       " ON ATOM    3 ARE THE SAME AS ATOM   1

 PARAMETERS FOR "H       " ON ATOM    4 ARE THE SAME AS ATOM   1

 PARAMETERS FOR "H       " ON ATOM    5 ARE THE SAME AS ATOM   1

 PARAMETERS FOR "C       " ON ATOM    6 WITH ZCORE   2 AND LMAX  1 ARE
 FOR L= 1      COEFF    N           ZETA
    1        4.00000    1        8.35974
    2       33.43895    3        4.48362
    3      -19.17537    2        3.93831
 FOR L= 0      COEFF    N           ZETA
    1       22.55164    2        5.02992

 PARAMETERS FOR "N       " ON ATOM    7 WITH ZCORE   2 AND LMAX  1 ARE
 FOR L= 1      COEFF    N           ZETA
    1        5.00000    1        9.23501
    2       46.17505    3        7.66830
    3      -30.18894    2        7.34486
 FOR L= 0      COEFF    N           ZETA
    1       31.69720    2        6.99537

 PARAMETERS FOR "N       " ON ATOM    8 ARE THE SAME AS ATOM   7

 THE ECP RUN REMOVES    6 CORE ELECTRONS, AND THE SAME NUMBER OF PROTONS.
 NUMBER OF ELECTRONS KEPT IN THE CALCULATION IS =   18
 NUMBER OF OCCUPIED ORBITALS (ALPHA) KEPT IS    =    9
 NUMBER OF OCCUPIED ORBITALS (BETA ) KEPT IS    =    9
 THE ADJUSTED NUCLEAR REPULSION ENERGY=       46.9132012474
          ECP ANGULAR INTS.........     0.00 SECONDS

          ----------------
          PROPERTIES INPUT
          ----------------

     MOMENTS            FIELD           POTENTIAL          DENSITY
 IEMOM =       1   IEFLD =       0   IEPOT =       0   IEDEN =       0
 WHERE =COMASS     WHERE =NUCLEI     WHERE =NUCLEI     WHERE =NUCLEI  
 OUTPUT=BOTH       OUTPUT=BOTH       OUTPUT=BOTH       OUTPUT=BOTH    
 IEMINT=       0   IEFINT=       0                     IEDINT=       0
                                                       MORB  =       0
          EXTRAPOLATION IN EFFECT
          SOSCF IN EFFECT
 ORBITAL PRINTING OPTION: NPREO=   1 117   2   1

     -------------------------------
     INTEGRAL TRANSFORMATION OPTIONS
     -------------------------------
     NWORD  =       0     CUTOFF = 1.0E-09
     MPTRAN =       0     DIRTRF =       F
     AOINTS =DUP     

          ----------------------
          INTEGRAL INPUT OPTIONS
          ----------------------
 NOPK  =       1 NORDER=       0 SCHWRZ=       T

     ------------------------------------------
     THE POINT GROUP IS C1 , NAXIS= 0, ORDER= 1
     ------------------------------------------

 -- VARIATIONAL SPACE WILL BE RESTRICTED TO PURE SPHERICAL HARMONICS ONLY --
 AFTER EXCLUDING CONTAMINANT COMBINATIONS FROM THE CARTESIAN GAUSSIAN BASIS
 SET, THE NUMBER OF SPHERICAL HARMONICS KEPT IN THE VARIATION SPACE IS  111

     DIMENSIONS OF THE SYMMETRY SUBSPACES ARE
 A   =  111

 ..... DONE SETTING UP THE RUN .....
 STEP CPU TIME =     0.00 TOTAL CPU TIME =        0.0 (    0.0 MIN)
 TOTAL WALL CLOCK TIME=        0.0 SECONDS, CPU UTILIZATION IS 100.00%

          ********************
          1 ELECTRON INTEGRALS
          ********************
 TIME TO DO ORDINARY INTEGRALS=      0.02
 TIME TO DO      ECP INTEGRALS=      0.11
 ...... END OF ONE-ELECTRON INTEGRALS ......
 STEP CPU TIME =     0.13 TOTAL CPU TIME =        0.1 (    0.0 MIN)
 TOTAL WALL CLOCK TIME=        0.0 SECONDS, CPU UTILIZATION IS 100.00%

          -------------
          GUESS OPTIONS
          -------------
          GUESS =HUCKEL            NORB  =       0          NORDER=       0
          MIX   =       F          PRTMO =       F          PUNMO =       F
          TOLZ  = 1.0E-08          TOLE  = 1.0E-05
          SYMDEN=       F          PURIFY=       F

 INITIAL GUESS ORBITALS GENERATED BY HUCKEL   ROUTINE.
 HUCKEL GUESS REQUIRES    106169 WORDS.

 STATISTICS FOR GENERATION OF SYMMETRY ORBITAL -Q- MATRIX
 NUMBER OF CARTESIAN ATOMIC ORBITALS=        117
 NUMBER OF SPHERICAL CONTAMINANTS DROPPED=     6
 NUMBER OF LINEARLY DEPENDENT MOS DROPPED=     0
 TOTAL NUMBER OF MOS IN VARIATION SPACE=     111

 SYMMETRIES FOR INITIAL GUESS ORBITALS FOLLOW.   BOTH SET(S).
     9 ORBITALS ARE OCCUPIED (    0 CORE ORBITALS).
     1=A        2=A        3=A        4=A        5=A        6=A        7=A   
     8=A        9=A       10=A       11=A       12=A       13=A       14=A   
    15=A       16=A       17=A       18=A       19=A   
 ...... END OF INITIAL ORBITAL SELECTION ......
 STEP CPU TIME =     0.01 TOTAL CPU TIME =        0.1 (    0.0 MIN)
 TOTAL WALL CLOCK TIME=        0.0 SECONDS, CPU UTILIZATION IS 100.00%

                    ----------------------
                    AO INTEGRAL TECHNOLOGY
                    ----------------------
     S,P,L SHELL ROTATED AXIS INTEGRALS, REPROGRAMMED BY
        KAZUYA ISHIMURA (IMS) AND JOSE SIERRA (SYNSTAR).
     S,P,D,L SHELL ROTATED AXIS INTEGRALS PROGRAMMED BY
        KAZUYA ISHIMURA (INSTITUTE FOR MOLECULAR SCIENCE).
     S,P,D,F,G SHELL TO TOTAL QUARTET ANGULAR MOMENTUM SUM 5,
        ERIC PROGRAM BY GRAHAM FLETCHER (ELORET AND NASA ADVANCED
        SUPERCOMPUTING DIVISION, AMES RESEARCH CENTER).
     S,P,D,F,G,L SHELL GENERAL RYS QUADRATURE PROGRAMMED BY
        MICHEL DUPUIS (PACIFIC NORTHWEST NATIONAL LABORATORY).

          --------------------
          2 ELECTRON INTEGRALS
          --------------------

 THE -PK- OPTION IS OFF, THE INTEGRALS ARE NOT IN SUPERMATRIX FORM.
 STORING   15000 INTEGRALS/RECORD ON DISK, USING 12 BYTES/INTEGRAL.
 TWO ELECTRON INTEGRAL EVALUATION REQUIRES   91621 WORDS OF MEMORY.
 SCHWARZ INEQUALITY OVERHEAD:      6903 INTEGRALS, T=        0.04
 II,JST,KST,LST =  1  1  1  1 NREC =         1 INTLOC =    1
 II,JST,KST,LST =  2  1  1  1 NREC =         1 INTLOC =    2
 II,JST,KST,LST =  3  1  1  1 NREC =         1 INTLOC =    7
 II,JST,KST,LST =  4  1  1  1 NREC =         1 INTLOC =   34
 II,JST,KST,LST =  5  1  1  1 NREC =         1 INTLOC =   67
 II,JST,KST,LST =  6  1  1  1 NREC =         1 INTLOC =  214
 II,JST,KST,LST =  7  1  1  1 NREC =         1 INTLOC =  529
 II,JST,KST,LST =  8  1  1  1 NREC =         1 INTLOC =  960
 II,JST,KST,LST =  9  1  1  1 NREC =         1 INTLOC = 2759
 II,JST,KST,LST = 10  1  1  1 NREC =         1 INTLOC = 3764
 II,JST,KST,LST = 11  1  1  1 NREC =         1 INTLOC = 7491
 II,JST,KST,LST = 12  1  1  1 NREC =         1 INTLOC = 9438
 II,JST,KST,LST = 13  1  1  1 NREC =         1 INTLOC =11734
 II,JST,KST,LST = 14  1  1  1 NREC =         2 INTLOC = 4519
 II,JST,KST,LST = 15  1  1  1 NREC =         2 INTLOC = 8267
 II,JST,KST,LST = 16  1  1  1 NREC =         3 INTLOC = 5470
 II,JST,KST,LST = 17  1  1  1 NREC =         3 INTLOC =12044
 II,JST,KST,LST = 18  1  1  1 NREC =         4 INTLOC = 4435
 II,JST,KST,LST = 19  1  1  1 NREC =         5 INTLOC =13429
 II,JST,KST,LST = 20  1  1  1 NREC =         6 INTLOC = 9169
 II,JST,KST,LST = 21  1  1  1 NREC =         8 INTLOC =13306
 II,JST,KST,LST = 22  1  1  1 NREC =         9 INTLOC =13255
 II,JST,KST,LST = 23  1  1  1 NREC =        10 INTLOC =14572
 II,JST,KST,LST = 24  1  1  1 NREC =        14 INTLOC = 5078
 II,JST,KST,LST = 25  1  1  1 NREC =        15 INTLOC =11744
 II,JST,KST,LST = 26  1  1  1 NREC =        20 INTLOC = 2949
 II,JST,KST,LST = 27  1  1  1 NREC =        22 INTLOC = 1672
 II,JST,KST,LST = 28  1  1  1 NREC =        24 INTLOC = 2511
 II,JST,KST,LST = 29  1  1  1 NREC =        30 INTLOC = 5659
 II,JST,KST,LST = 30  1  1  1 NREC =        37 INTLOC =10867
 II,JST,KST,LST = 31  1  1  1 NREC =        56 INTLOC = 4492
 II,JST,KST,LST = 32  1  1  1 NREC =        60 INTLOC = 4902
 II,JST,KST,LST = 33  1  1  1 NREC =        72 INTLOC = 5287
 II,JST,KST,LST = 34  1  1  1 NREC =       101 INTLOC = 7870
 II,JST,KST,LST = 35  1  1  1 NREC =       108 INTLOC =  625
 II,JST,KST,LST = 36  1  1  1 NREC =       114 INTLOC =13116
 II,JST,KST,LST = 37  1  1  1 NREC =       135 INTLOC = 4475
 II,JST,KST,LST = 38  1  1  1 NREC =       158 INTLOC = 4318
 II,JST,KST,LST = 39  1  1  1 NREC =       212 INTLOC =11136
 II,JST,KST,LST = 40  1  1  1 NREC =       223 INTLOC =12674
 II,JST,KST,LST = 41  1  1  1 NREC =       256 INTLOC =12954
 II,JST,KST,LST = 42  1  1  1 NREC =       333 INTLOC = 5929
 II,JST,KST,LST = 43  1  1  1 NREC =       348 INTLOC =11450
 II,JST,KST,LST = 44  1  1  1 NREC =       364 INTLOC =10073
 II,JST,KST,LST = 45  1  1  1 NREC =       411 INTLOC = 9830
 II,JST,KST,LST = 46  1  1  1 NREC =       462 INTLOC =13937
 II,JST,KST,LST = 47  1  1  1 NREC =       579 INTLOC = 3552
 II,JST,KST,LST = 48  1  1  1 NREC =       602 INTLOC = 1708
 II,JST,KST,LST = 49  1  1  1 NREC =       669 INTLOC = 6512
 SCHWARZ INEQUALITY TEST SKIPPED         0 INTEGRAL BLOCKS.
 TOTAL NUMBER OF NONZERO TWO-ELECTRON INTEGRALS =            12287981
        820 INTEGRAL RECORDS WERE STORED ON DISK FILE  8.
  ...... END OF TWO-ELECTRON INTEGRALS .....
 STEP CPU TIME =     6.14 TOTAL CPU TIME =        6.3 (    0.1 MIN)
 TOTAL WALL CLOCK TIME=        6.0 SECONDS, CPU UTILIZATION IS 104.67%

          --------------------------
                 RHF SCF CALCULATION
          --------------------------

     NUCLEAR ENERGY =        46.9132012474
     MAXIT =  100     NPUNCH=    2
     EXTRAP=T  DAMP=F  SHIFT=F  RSTRCT=F  DIIS=F  DEM=F  SOSCF=T
     DENSITY MATRIX CONV=  1.00E-05
     SOSCF WILL OPTIMIZE     918 ORBITAL ROTATIONS, SOGTOL=   0.250
     MEMORY REQUIRED FOR RHF STEP=    131133 WORDS.

 ITER EX DEM     TOTAL ENERGY        E CHANGE  DENSITY CHANGE     ORB. GRAD
   1  0  0      -27.2523974353   -27.2523974353   0.725207248   0.000000000
          ---------------START SECOND ORDER SCF---------------
   2  1  0      -27.6490676534    -0.3966702180   0.285675590   0.074947192
   3  2  0      -27.6885541646    -0.0394865113   0.087486974   0.018673713
   4  3  0      -27.6952642917    -0.0067101271   0.024786067   0.005096310
   5  4  0      -27.6957530221    -0.0004887304   0.006155104   0.001822649
   6  5  0      -27.6957952570    -0.0000422349   0.002330071   0.000483493
   7  6  0      -27.6957992281    -0.0000039711   0.000406304   0.000075886
   8  7  0      -27.6957993930    -0.0000001650   0.000045831   0.000009395
   9  8  0      -27.6957993971    -0.0000000041   0.000014056   0.000002701
  10  9  0      -27.6957993974    -0.0000000003   0.000003370   0.000001184
  11 10  0      -27.6957993974     0.0000000000   0.000001521   0.000000467

          -----------------
          DENSITY CONVERGED
          -----------------
     TIME TO FORM FOCK OPERATORS=       1.5 SECONDS (       0.1 SEC/ITER)
     TIME TO SOLVE SCF EQUATIONS=       0.0 SECONDS (       0.0 SEC/ITER)

 FINAL RHF ENERGY IS      -27.6957993974 AFTER  11 ITERATIONS

          ------------
          EIGENVECTORS
          ------------

                      1          2          3          4          5
                   -1.5426    -1.4340    -1.1220    -1.0149    -0.9809
                     A          A          A          A          A   
    1  H  1  S    0.076822   0.000000   0.243292   0.221994   0.000000
    2  H  1  S   -0.044395   0.000000   0.009057   0.079819   0.000000
    3  H  1  X    0.000000   0.000000   0.000000   0.000000   0.000000
    4  H  1  Y    0.000000  -0.004877   0.000000   0.000000  -0.007627
    5  H  1  Z    0.011319   0.000000   0.023358   0.018102   0.000000
    6  H  1  S    0.007390   0.000000   0.008802  -0.014815   0.000000
    7  H  1  X    0.000000   0.000000   0.000000   0.000000   0.000000
    8  H  1  Y    0.000000  -0.010787   0.000000   0.000000  -0.002533
    9  H  1  Z    0.010181   0.000000  -0.006396  -0.026512   0.000000
   10  H  2  S    0.116432   0.147444  -0.219994  -0.127314  -0.304020
   11  H  2  S    0.010118   0.000669   0.027527   0.009043   0.020719
   12  H  2  X    0.000000   0.000000   0.000000   0.000000   0.000000
   13  H  2  Y    0.002925   0.003790   0.002274  -0.009675   0.002514
   14  H  2  Z   -0.017940  -0.020237   0.021177   0.010209   0.025382
   15  H  2  S    0.000342  -0.005212  -0.001588  -0.010024  -0.015416
   16  H  2  X    0.000000   0.000000   0.000000   0.000000   0.000000
   17  H  2  Y    0.006592   0.001140   0.007482  -0.005889   0.015497
   18  H  2  Z    0.005629   0.009420  -0.004091  -0.001434  -0.005565
   19  H  3  S    0.116432  -0.147444  -0.219994  -0.127314   0.304020
   20  H  3  S    0.010118  -0.000669   0.027527   0.009043  -0.020719
   21  H  3  X    0.000000   0.000000   0.000000   0.000000   0.000000
   22  H  3  Y   -0.002925   0.003790  -0.002274   0.009675   0.002514
   23  H  3  Z   -0.017940   0.020237   0.021177   0.010209  -0.025382
   24  H  3  S    0.000342   0.005212  -0.001588  -0.010024   0.015416
   25  H  3  X    0.000000   0.000000   0.000000   0.000000   0.000000
   26  H  3  Y   -0.006592   0.001140  -0.007482   0.005889   0.015497
   27  H  3  Z    0.005629  -0.009420  -0.004091  -0.001434   0.005565
   28  H  4  S    0.106144   0.166629  -0.155355   0.283151  -0.021737
   29  H  4  S   -0.006308  -0.000628   0.023491  -0.023554  -0.007674
   30  H  4  X    0.000000   0.000000   0.000000   0.000000   0.000000
   31  H  4  Y    0.015677   0.020222  -0.008647   0.021058   0.004626
   32  H  4  Z    0.006443   0.012062  -0.013445   0.012306  -0.008500
   33  H  4  S   -0.001578  -0.004772  -0.000122   0.016925   0.007452
   34  H  4  X    0.000000   0.000000   0.000000   0.000000   0.000000
   35  H  4  Y    0.002005  -0.003942   0.005262  -0.008411   0.016580
   36  H  4  Z   -0.009034  -0.005840  -0.004968  -0.001975  -0.008776
   37  H  5  S    0.106144  -0.166629  -0.155355   0.283151   0.021737
   38  H  5  S   -0.006308   0.000628   0.023491  -0.023554   0.007674
   39  H  5  X    0.000000   0.000000   0.000000   0.000000   0.000000
   40  H  5  Y   -0.015677   0.020222   0.008647  -0.021058   0.004626
   41  H  5  Z    0.006443  -0.012062  -0.013445   0.012306   0.008500
   42  H  5  S   -0.001578   0.004772  -0.000122   0.016925  -0.007452
   43  H  5  X    0.000000   0.000000   0.000000   0.000000   0.000000
   44  H  5  Y   -0.002005  -0.003942  -0.005262   0.008411   0.016580
   45  H  5  Z   -0.009034   0.005840  -0.004968  -0.001975   0.008776
   46  C  6  S    0.542255   0.000000   0.617943  -0.028115   0.000000
   47  C  6  S    0.074457   0.000000  -0.210876  -0.114689   0.000000
   48  C  6  X    0.000000   0.000000   0.000000   0.000000   0.000000
   49  C  6  Y    0.000000   0.338246   0.000000   0.000000   0.511929
   50  C  6  Z   -0.140005   0.000000   0.106729   0.426979   0.000000
   51  C  6  X    0.000000   0.000000   0.000000   0.000000   0.000000
   52  C  6  Y    0.000000  -0.004418   0.000000   0.000000  -0.090941
   53  C  6  Z    0.007504   0.000000  -0.048047  -0.182505   0.000000
   54  C  6 XX   -0.021793   0.000000  -0.013719   0.001187   0.000000
   55  C  6 YY    0.027260   0.000000   0.004768   0.003506   0.000000
   56  C  6 ZZ   -0.005466   0.000000   0.008951  -0.004693   0.000000
   57  C  6 XY    0.000000   0.000000   0.000000   0.000000   0.000000
   58  C  6 XZ    0.000000   0.000000   0.000000   0.000000   0.000000
   59  C  6 YZ    0.000000  -0.032294   0.000000   0.000000  -0.020398
   60  C  6  S    0.040290   0.000000  -0.072333  -0.018420   0.000000
   61  C  6  X    0.000000   0.000000   0.000000   0.000000   0.000000
   62  C  6  Y    0.000000   0.032085   0.000000   0.000000   0.007195
   63  C  6  Z   -0.015355   0.000000  -0.000621   0.004014   0.000000
   64  C  6 XX   -0.024834   0.000000   0.007121   0.013042   0.000000
   65  C  6 YY    0.032830   0.000000   0.004124   0.001156   0.000000
   66  C  6 ZZ   -0.007996   0.000000  -0.011245  -0.014198   0.000000
   67  C  6 XY    0.000000   0.000000   0.000000   0.000000   0.000000
   68  C  6 XZ    0.000000   0.000000   0.000000   0.000000   0.000000
   69  C  6 YZ    0.000000  -0.009450   0.000000   0.000000  -0.007537
   70  N  7  S    0.521130   0.600657  -0.256655   0.040802  -0.047688
   71  N  7  S   -0.276040  -0.258543   0.033912   0.005106  -0.033397
   72  N  7  X    0.000000   0.000000   0.000000   0.000000   0.000000
   73  N  7  Y   -0.101822  -0.020552  -0.282808   0.350705  -0.276166
   74  N  7  Z    0.038741   0.035063   0.209127   0.264187   0.424104
   75  N  7  X    0.000000   0.000000   0.000000   0.000000   0.000000
   76  N  7  Y    0.056522   0.026942   0.054686  -0.063473   0.082943
   77  N  7  Z   -0.028736  -0.024762  -0.043281  -0.030437  -0.078278
   78  N  7 XX   -0.010253  -0.010236   0.002716   0.000364   0.000061
   79  N  7 YY    0.011471   0.004576   0.007195  -0.002710   0.010387
   80  N  7 ZZ   -0.001218   0.005660  -0.009911   0.002346  -0.010449
   81  N  7 XY    0.000000   0.000000   0.000000   0.000000   0.000000
   82  N  7 XZ    0.000000   0.000000   0.000000   0.000000   0.000000
   83  N  7 YZ   -0.006279  -0.004131  -0.013782   0.008817  -0.012582
   84  N  7  S   -0.074100  -0.121534   0.060023   0.006373  -0.012609
   85  N  7  X    0.000000   0.000000   0.000000   0.000000   0.000000
   86  N  7  Y    0.009688   0.012414   0.005060  -0.026057  -0.000670
   87  N  7  Z    0.002599  -0.017955  -0.008844  -0.028055  -0.036140
   88  N  7 XX    0.018855   0.017705  -0.001082  -0.003041   0.007599
   89  N  7 YY   -0.010092  -0.014669  -0.004915  -0.005440  -0.023714
   90  N  7 ZZ   -0.008763  -0.003036   0.005997   0.008480   0.016115
   91  N  7 XY    0.000000   0.000000   0.000000   0.000000   0.000000
   92  N  7 XZ    0.000000   0.000000   0.000000   0.000000   0.000000
   93  N  7 YZ    0.016819   0.004688   0.005832  -0.013382   0.013657
   94  N  8  S    0.521130  -0.600657  -0.256655   0.040802   0.047688
   95  N  8  S   -0.276040   0.258543   0.033912   0.005106   0.033397
   96  N  8  X    0.000000   0.000000   0.000000   0.000000   0.000000
   97  N  8  Y    0.101822  -0.020552   0.282808  -0.350705  -0.276166
   98  N  8  Z    0.038741  -0.035063   0.209127   0.264187  -0.424104
   99  N  8  X    0.000000   0.000000   0.000000   0.000000   0.000000
  100  N  8  Y   -0.056522   0.026942  -0.054686   0.063473   0.082943
  101  N  8  Z   -0.028736   0.024762  -0.043281  -0.030437   0.078278
  102  N  8 XX   -0.010253   0.010236   0.002716   0.000364  -0.000061
  103  N  8 YY    0.011471  -0.004576   0.007195  -0.002710  -0.010387
  104  N  8 ZZ   -0.001218  -0.005660  -0.009911   0.002346   0.010449
  105  N  8 XY    0.000000   0.000000   0.000000   0.000000   0.000000
  106  N  8 XZ    0.000000   0.000000   0.000000   0.000000   0.000000
  107  N  8 YZ    0.006279  -0.004131   0.013782  -0.008817  -0.012582
  108  N  8  S   -0.074100   0.121534   0.060023   0.006373   0.012609
  109  N  8  X    0.000000   0.000000   0.000000   0.000000   0.000000
  110  N  8  Y   -0.009688   0.012414  -0.005060   0.026057  -0.000670
  111  N  8  Z    0.002599   0.017955  -0.008844  -0.028055   0.036140
  112  N  8 XX    0.018855  -0.017705  -0.001082  -0.003041  -0.007599
  113  N  8 YY   -0.010092   0.014669  -0.004915  -0.005440   0.023714
  114  N  8 ZZ   -0.008763   0.003036   0.005997   0.008480  -0.016115
  115  N  8 XY    0.000000   0.000000   0.000000   0.000000   0.000000
  116  N  8 XZ    0.000000   0.000000   0.000000   0.000000   0.000000
  117  N  8 YZ   -0.016819   0.004688  -0.005832   0.013382   0.013657

                      6          7          8          9         10
                   -0.8996    -0.8338    -0.7990    -0.6456    -0.1069
                     A          A          A          A          A   
    1  H  1  S    0.000000   0.416236   0.000000   0.000000   0.034669
    2  H  1  S    0.000000   0.094793   0.000000   0.000000   0.169436
    3  H  1  X    0.000000   0.000000  -0.011599   0.000000   0.000000
    4  H  1  Y    0.005460   0.000000   0.000000   0.000000   0.000000
    5  H  1  Z    0.000000   0.023279   0.000000   0.000000   0.010230
    6  H  1  S    0.000000   0.008175   0.000000   0.000000  -0.614040
    7  H  1  X    0.000000   0.000000  -0.007081   0.000000   0.000000
    8  H  1  Y    0.019506   0.000000   0.000000   0.000000   0.000000
    9  H  1  Z    0.000000  -0.031731   0.000000   0.000000  -0.068443
   10  H  2  S   -0.168751   0.257018   0.000000   0.000000   0.012003
   11  H  2  S    0.013444  -0.007315   0.000000   0.000000  -0.008067
   12  H  2  X    0.000000   0.000000  -0.015513  -0.020465   0.000000
   13  H  2  Y   -0.011450   0.002618   0.000000   0.000000  -0.002336
   14  H  2  Z    0.012083  -0.014751   0.000000   0.000000  -0.010617
   15  H  2  S   -0.006749   0.000840   0.000000   0.000000  -0.583321
   16  H  2  X    0.000000   0.000000   0.001914   0.003054   0.000000
   17  H  2  Y   -0.011659  -0.007847   0.000000   0.000000  -0.014539
   18  H  2  Z   -0.002066   0.007325   0.000000   0.000000   0.050136
   19  H  3  S    0.168751   0.257018   0.000000   0.000000   0.012003
   20  H  3  S   -0.013444  -0.007315   0.000000   0.000000  -0.008067
   21  H  3  X    0.000000   0.000000  -0.015513   0.020465   0.000000
   22  H  3  Y   -0.011450  -0.002618   0.000000   0.000000   0.002336
   23  H  3  Z   -0.012083  -0.014751   0.000000   0.000000  -0.010617
   24  H  3  S    0.006749   0.000840   0.000000   0.000000  -0.583321
   25  H  3  X    0.000000   0.000000   0.001914  -0.003054   0.000000
   26  H  3  Y   -0.011659   0.007847   0.000000   0.000000   0.014539
   27  H  3  Z    0.002066   0.007325   0.000000   0.000000   0.050136
   28  H  4  S    0.349700  -0.138164   0.000000   0.000000  -0.035557
   29  H  4  S   -0.016033   0.011240   0.000000   0.000000  -0.057013
   30  H  4  X    0.000000   0.000000  -0.015722  -0.021584   0.000000
   31  H  4  Y    0.021284  -0.012506   0.000000   0.000000   0.006498
   32  H  4  Z    0.013395   0.002589   0.000000   0.000000   0.007709
   33  H  4  S    0.007129   0.000067   0.000000   0.000000  -0.379922
   34  H  4  X    0.000000   0.000000  -0.001060   0.005360   0.000000
   35  H  4  Y   -0.012716  -0.004227   0.000000   0.000000  -0.025098
   36  H  4  Z   -0.000285   0.003686   0.000000   0.000000   0.008364
   37  H  5  S   -0.349700  -0.138164   0.000000   0.000000  -0.035557
   38  H  5  S    0.016033   0.011240   0.000000   0.000000  -0.057013
   39  H  5  X    0.000000   0.000000  -0.015722   0.021584   0.000000
   40  H  5  Y    0.021284   0.012506   0.000000   0.000000  -0.006498
   41  H  5  Z   -0.013395   0.002589   0.000000   0.000000   0.007709
   42  H  5  S   -0.007129   0.000067   0.000000   0.000000  -0.379922
   43  H  5  X    0.000000   0.000000  -0.001060  -0.005360   0.000000
   44  H  5  Y   -0.012716   0.004227   0.000000   0.000000   0.025098
   45  H  5  Z    0.000285   0.003686   0.000000   0.000000   0.008364
   46  C  6  S    0.000000   0.086185   0.000000   0.000000   0.051201
   47  C  6  S    0.000000  -0.166626   0.000000   0.000000  -0.093779
   48  C  6  X    0.000000   0.000000   0.484139   0.000000   0.000000
   49  C  6  Y   -0.292043   0.000000   0.000000   0.000000   0.000000
   50  C  6  Z    0.000000   0.545718   0.000000   0.000000   0.121162
   51  C  6  X    0.000000   0.000000  -0.092066   0.000000   0.000000
   52  C  6  Y    0.013212   0.000000   0.000000   0.000000   0.000000
   53  C  6  Z    0.000000  -0.137130   0.000000   0.000000  -0.081860
   54  C  6 XX    0.000000   0.000964   0.000000   0.000000  -0.007428
   55  C  6 YY    0.000000  -0.047250   0.000000   0.000000   0.006974
   56  C  6 ZZ    0.000000   0.046286   0.000000   0.000000   0.000454
   57  C  6 XY    0.000000   0.000000   0.000000   0.059933   0.000000
   58  C  6 XZ    0.000000   0.000000  -0.023875   0.000000   0.000000
   59  C  6 YZ    0.039881   0.000000   0.000000   0.000000   0.000000
   60  C  6  S    0.000000  -0.067266   0.000000   0.000000   2.226913
   61  C  6  X    0.000000   0.000000  -0.009979   0.000000   0.000000
   62  C  6  Y    0.008523   0.000000   0.000000   0.000000   0.000000
   63  C  6  Z    0.000000  -0.019577   0.000000   0.000000  -0.057616
   64  C  6 XX    0.000000   0.018503   0.000000   0.000000   0.020042
   65  C  6 YY    0.000000  -0.003768   0.000000   0.000000   0.027258
   66  C  6 ZZ    0.000000  -0.014734   0.000000   0.000000  -0.047300
   67  C  6 XY    0.000000   0.000000   0.000000   0.028924   0.000000
   68  C  6 XZ    0.000000   0.000000   0.009846   0.000000   0.000000
   69  C  6 YZ   -0.012081   0.000000   0.000000   0.000000   0.000000
   70  N  7  S   -0.032114  -0.071824   0.000000   0.000000   0.152451
   71  N  7  S    0.023200   0.033979   0.000000   0.000000   0.110353
   72  N  7  X    0.000000   0.000000   0.502515   0.635585   0.000000
   73  N  7  Y    0.448976   0.063190   0.000000   0.000000   0.057370
   74  N  7  Z    0.274239  -0.370264   0.000000   0.000000  -0.045257
   75  N  7  X    0.000000   0.000000   0.017414   0.039848   0.000000
   76  N  7  Y   -0.073772  -0.031892   0.000000   0.000000   0.008070
   77  N  7  Z   -0.008499   0.044033   0.000000   0.000000  -0.003495
   78  N  7 XX   -0.000211   0.000015   0.000000   0.000000  -0.001943
   79  N  7 YY    0.005643  -0.019130   0.000000   0.000000  -0.001997
   80  N  7 ZZ   -0.005432   0.019115   0.000000   0.000000   0.003941
   81  N  7 XY    0.000000   0.000000  -0.015417  -0.005234   0.000000
   82  N  7 XZ    0.000000   0.000000   0.008110   0.003541   0.000000
   83  N  7 YZ    0.017977  -0.007852   0.000000   0.000000  -0.004660
   84  N  7  S    0.010618   0.034351   0.000000   0.000000  -0.463092
   85  N  7  X    0.000000   0.000000  -0.011417   0.010582   0.000000
   86  N  7  Y   -0.022452  -0.006710   0.000000   0.000000   0.306823
   87  N  7  Z   -0.021416   0.016623   0.000000   0.000000  -0.243051
   88  N  7 XX   -0.005090  -0.006985   0.000000   0.000000  -0.002238
   89  N  7 YY    0.002322   0.003168   0.000000   0.000000   0.002916
   90  N  7 ZZ    0.002768   0.003816   0.000000   0.000000  -0.000677
   91  N  7 XY    0.000000   0.000000  -0.015069  -0.004198   0.000000
   92  N  7 XZ    0.000000   0.000000   0.006163  -0.000192   0.000000
   93  N  7 YZ   -0.017648  -0.005377   0.000000   0.000000  -0.008872
   94  N  8  S    0.032114  -0.071824   0.000000   0.000000   0.152451
   95  N  8  S   -0.023200   0.033979   0.000000   0.000000   0.110353
   96  N  8  X    0.000000   0.000000   0.502515  -0.635585   0.000000
   97  N  8  Y    0.448976  -0.063190   0.000000   0.000000  -0.057370
   98  N  8  Z   -0.274239  -0.370264   0.000000   0.000000  -0.045257
   99  N  8  X    0.000000   0.000000   0.017414  -0.039848   0.000000
  100  N  8  Y   -0.073772   0.031892   0.000000   0.000000  -0.008070
  101  N  8  Z    0.008499   0.044033   0.000000   0.000000  -0.003495
  102  N  8 XX    0.000211   0.000015   0.000000   0.000000  -0.001943
  103  N  8 YY   -0.005643  -0.019130   0.000000   0.000000  -0.001997
  104  N  8 ZZ    0.005432   0.019115   0.000000   0.000000   0.003941
  105  N  8 XY    0.000000   0.000000   0.015417  -0.005234   0.000000
  106  N  8 XZ    0.000000   0.000000   0.008110  -0.003541   0.000000
  107  N  8 YZ    0.017977   0.007852   0.000000   0.000000   0.004660
  108  N  8  S   -0.010618   0.034351   0.000000   0.000000  -0.463092
  109  N  8  X    0.000000   0.000000  -0.011417  -0.010582   0.000000
  110  N  8  Y   -0.022452   0.006710   0.000000   0.000000  -0.306823
  111  N  8  Z    0.021416   0.016623   0.000000   0.000000  -0.243051
  112  N  8 XX    0.005090  -0.006985   0.000000   0.000000  -0.002238
  113  N  8 YY   -0.002322   0.003168   0.000000   0.000000   0.002916
  114  N  8 ZZ   -0.002768   0.003816   0.000000   0.000000  -0.000677
  115  N  8 XY    0.000000   0.000000   0.015069  -0.004198   0.000000
  116  N  8 XZ    0.000000   0.000000   0.006163   0.000192   0.000000
  117  N  8 YZ   -0.017648   0.005377   0.000000   0.000000   0.008872

                     11         12         13         14         15
                   -0.0873    -0.0833    -0.0769    -0.0477    -0.0462
                     A          A          A          A          A   
    1  H  1  S    0.028374   0.000000   0.000000  -0.018753   0.000000
    2  H  1  S   -0.196441   0.000000   0.000000  -0.368201   0.000000
    3  H  1  X    0.000000   0.000000  -0.026596   0.000000   0.000000
    4  H  1  Y    0.000000   0.005614   0.000000   0.000000  -0.001118
    5  H  1  Z   -0.015423   0.000000   0.000000  -0.008054   0.000000
    6  H  1  S    1.643199   0.000000   0.000000   4.090811   0.000000
    7  H  1  X    0.000000   0.000000   0.112029   0.000000   0.000000
    8  H  1  Y    0.000000  -0.054478   0.000000   0.000000   0.022120
    9  H  1  Z    0.145747   0.000000   0.000000   0.157125   0.000000
   10  H  2  S   -0.014753  -0.029385   0.000000  -0.006348   0.007726
   11  H  2  S   -0.043328  -0.035047   0.000000  -0.056987  -0.078003
   12  H  2  X    0.000000   0.000000   0.019484   0.000000   0.000000
   13  H  2  Y    0.001677  -0.000411   0.000000   0.003110   0.005746
   14  H  2  Z   -0.010570  -0.006698   0.000000   0.002664  -0.006357
   15  H  2  S   -1.083312  -0.588919   0.000000   0.884610  -3.347577
   16  H  2  X    0.000000   0.000000  -0.039323   0.000000   0.000000
   17  H  2  Y    0.010793  -0.058777   0.000000  -0.025459  -0.017892
   18  H  2  Z    0.039495   0.032337   0.000000  -0.100045   0.046140
   19  H  3  S   -0.014753   0.029385   0.000000  -0.006348  -0.007726
   20  H  3  S   -0.043328   0.035047   0.000000  -0.056988   0.078003
   21  H  3  X    0.000000   0.000000   0.019484   0.000000   0.000000
   22  H  3  Y   -0.001677  -0.000411   0.000000  -0.003110   0.005746
   23  H  3  Z   -0.010570   0.006698   0.000000   0.002664   0.006357
   24  H  3  S   -1.083312   0.588919   0.000000   0.884609   3.347577
   25  H  3  X    0.000000   0.000000  -0.039323   0.000000   0.000000
   26  H  3  Y   -0.010793  -0.058777   0.000000   0.025459  -0.017892
   27  H  3  Z    0.039495  -0.032337   0.000000  -0.100045  -0.046140
   28  H  4  S    0.002060   0.007548   0.000000  -0.000253   0.001839
   29  H  4  S    0.020498  -0.046939   0.000000  -0.076526   0.116296
   30  H  4  X    0.000000   0.000000   0.017353   0.000000   0.000000
   31  H  4  Y   -0.004459   0.008726   0.000000   0.007920  -0.002410
   32  H  4  Z   -0.001697   0.007051   0.000000  -0.000587  -0.003613
   33  H  4  S    0.404839  -1.305096   0.000000  -2.567343   1.670404
   34  H  4  X    0.000000   0.000000   0.009976   0.000000   0.000000
   35  H  4  Y   -0.015460  -0.054142   0.000000  -0.058234   0.011486
   36  H  4  Z    0.037507  -0.003439   0.000000  -0.007261   0.053195
   37  H  5  S    0.002060  -0.007548   0.000000  -0.000253  -0.001839
   38  H  5  S    0.020498   0.046939   0.000000  -0.076526  -0.116296
   39  H  5  X    0.000000   0.000000   0.017353   0.000000   0.000000
   40  H  5  Y    0.004459   0.008726   0.000000  -0.007920  -0.002410
   41  H  5  Z   -0.001697  -0.007051   0.000000  -0.000587   0.003613
   42  H  5  S    0.404839   1.305096   0.000000  -2.567343  -1.670404
   43  H  5  X    0.000000   0.000000   0.009976   0.000000   0.000000
   44  H  5  Y    0.015460  -0.054142   0.000000   0.058234   0.011486
   45  H  5  Z    0.037507   0.003439   0.000000  -0.007261  -0.053195
   46  C  6  S   -0.123265   0.000000   0.000000  -0.123389   0.000000
   47  C  6  S    0.243205   0.000000   0.000000   0.107239   0.000000
   48  C  6  X    0.000000   0.000000   0.631281   0.000000   0.000000
   49  C  6  Y    0.000000  -0.067156   0.000000   0.000000  -0.051983
   50  C  6  Z   -0.129308   0.000000   0.000000  -0.032409   0.000000
   51  C  6  X    0.000000   0.000000   0.248786   0.000000   0.000000
   52  C  6  Y    0.000000   0.042895   0.000000   0.000000   0.054608
   53  C  6  Z    0.183294   0.000000   0.000000   0.165540   0.000000
   54  C  6 XX   -0.002619   0.000000   0.000000  -0.000001   0.000000
   55  C  6 YY   -0.009926   0.000000   0.000000   0.007643   0.000000
   56  C  6 ZZ    0.012545   0.000000   0.000000  -0.007643   0.000000
   57  C  6 XY    0.000000   0.000000   0.000000   0.000000   0.000000
   58  C  6 XZ    0.000000   0.000000   0.025769   0.000000   0.000000
   59  C  6 YZ    0.000000  -0.007964   0.000000   0.000000  -0.005370
   60  C  6  S   -0.188386   0.000000   0.000000  -1.706160   0.000000
   61  C  6  X    0.000000   0.000000   1.064539   0.000000   0.000000
   62  C  6  Y    0.000000   0.687271   0.000000   0.000000   1.265028
   63  C  6  Z   -0.581671   0.000000   0.000000  -1.351545   0.000000
   64  C  6 XX    0.001876   0.000000   0.000000   0.001789   0.000000
   65  C  6 YY   -0.066005   0.000000   0.000000  -0.182429   0.000000
   66  C  6 ZZ    0.064130   0.000000   0.000000   0.180641   0.000000
   67  C  6 XY    0.000000   0.000000   0.000000   0.000000   0.000000
   68  C  6 XZ    0.000000   0.000000  -0.002642   0.000000   0.000000
   69  C  6 YZ    0.000000  -0.000148   0.000000   0.000000   0.023923
   70  N  7  S    0.041192   0.136093   0.000000   0.049379   0.021754
   71  N  7  S    0.077497   0.063806   0.000000   0.267181   0.016753
   72  N  7  X    0.000000   0.000000  -0.337424   0.000000   0.000000
   73  N  7  Y   -0.029702   0.086612   0.000000   0.034277  -0.031817
   74  N  7  Z   -0.105951   0.004776   0.000000   0.071011  -0.098090
   75  N  7  X    0.000000   0.000000  -0.106123   0.000000   0.000000
   76  N  7  Y   -0.011642   0.029519   0.000000   0.019794  -0.011871
   77  N  7  Z   -0.020025  -0.000018   0.000000   0.052054  -0.052055
   78  N  7 XX    0.000160   0.000265   0.000000   0.001832   0.000291
   79  N  7 YY    0.003135   0.000345   0.000000  -0.003360  -0.001191
   80  N  7 ZZ   -0.003295  -0.000611   0.000000   0.001528   0.000900
   81  N  7 XY    0.000000   0.000000  -0.020160   0.000000   0.000000
   82  N  7 XZ    0.000000   0.000000   0.014975   0.000000   0.000000
   83  N  7 YZ    0.003787   0.003365   0.000000   0.004525   0.005045
   84  N  7  S   -0.095715  -0.415336   0.000000   0.341909  -0.542575
   85  N  7  X    0.000000   0.000000  -0.591842   0.000000   0.000000
   86  N  7  Y    0.066993   0.464233   0.000000   0.155288  -0.176173
   87  N  7  Z   -0.058052  -0.150212   0.000000   0.599772  -0.642440
   88  N  7 XX    0.001941  -0.000404   0.000000   0.001947   0.006561
   89  N  7 YY    0.004523   0.008514   0.000000  -0.023674  -0.003115
   90  N  7 ZZ   -0.006464  -0.008110   0.000000   0.021726  -0.003446
   91  N  7 XY    0.000000   0.000000  -0.011043   0.000000   0.000000
   92  N  7 XZ    0.000000   0.000000   0.011036   0.000000   0.000000
   93  N  7 YZ    0.013224  -0.003542   0.000000  -0.015932   0.000593
   94  N  8  S    0.041192  -0.136093   0.000000   0.049379  -0.021754
   95  N  8  S    0.077497  -0.063806   0.000000   0.267181  -0.016752
   96  N  8  X    0.000000   0.000000  -0.337424   0.000000   0.000000
   97  N  8  Y    0.029702   0.086612   0.000000  -0.034277  -0.031817
   98  N  8  Z   -0.105951  -0.004776   0.000000   0.071011   0.098090
   99  N  8  X    0.000000   0.000000  -0.106123   0.000000   0.000000
  100  N  8  Y    0.011642   0.029519   0.000000  -0.019794  -0.011871
  101  N  8  Z   -0.020025   0.000018   0.000000   0.052054   0.052055
  102  N  8 XX    0.000160  -0.000265   0.000000   0.001832  -0.000291
  103  N  8 YY    0.003135  -0.000345   0.000000  -0.003360   0.001191
  104  N  8 ZZ   -0.003295   0.000611   0.000000   0.001528  -0.000900
  105  N  8 XY    0.000000   0.000000   0.020160   0.000000   0.000000
  106  N  8 XZ    0.000000   0.000000   0.014975   0.000000   0.000000
  107  N  8 YZ   -0.003787   0.003365   0.000000  -0.004525   0.005045
  108  N  8  S   -0.095715   0.415336   0.000000   0.341909   0.542575
  109  N  8  X    0.000000   0.000000  -0.591842   0.000000   0.000000
  110  N  8  Y   -0.066993   0.464233   0.000000  -0.155288  -0.176173
  111  N  8  Z   -0.058052   0.150212   0.000000   0.599772   0.642440
  112  N  8 XX    0.001941   0.000404   0.000000   0.001947  -0.006561
  113  N  8 YY    0.004523  -0.008514   0.000000  -0.023674   0.003115
  114  N  8 ZZ   -0.006464   0.008110   0.000000   0.021726   0.003446
  115  N  8 XY    0.000000   0.000000   0.011043   0.000000   0.000000
  116  N  8 XZ    0.000000   0.000000   0.011036   0.000000   0.000000
  117  N  8 YZ   -0.013224  -0.003542   0.000000   0.015932   0.000593

                     16         17         18         19         20
                   -0.0435    -0.0167     0.0001     0.0155     0.0237
                     A          A          A          A          A   
    1  H  1  S    0.000000  -0.053255   0.000000   0.021701   0.000000
    2  H  1  S    0.000000  -0.282446   0.000000   1.528146   0.000000
    3  H  1  X   -0.003317   0.000000   0.000000   0.000000   0.000000
    4  H  1  Y    0.000000   0.000000  -0.010977   0.000000   0.000000
    5  H  1  Z    0.000000   0.005654   0.000000  -0.015436   0.000000
    6  H  1  S    0.000000   1.983488   0.000000  -3.961066   0.000000
    7  H  1  X   -0.170846   0.000000   0.000000   0.000000   0.000000
    8  H  1  Y    0.000000   0.000000  -0.057466   0.000000   0.000000
    9  H  1  Z    0.000000  -0.037369   0.000000  -0.513280   0.000000
   10  H  2  S    0.000000  -0.021540   0.071733  -0.004390   0.000000
   11  H  2  S    0.000000   0.457185   0.404277   0.002172   0.000000
   12  H  2  X   -0.003172   0.000000   0.000000   0.000000  -0.011616
   13  H  2  Y    0.000000   0.003185  -0.001470   0.003847   0.000000
   14  H  2  Z    0.000000  -0.003367   0.009590   0.012466   0.000000
   15  H  2  S    0.000000  -2.100040   0.054730  -0.008443   0.000000
   16  H  2  X    0.079747   0.000000   0.000000   0.000000  -0.165066
   17  H  2  Y    0.000000  -0.063709  -0.043001  -0.209573   0.000000
   18  H  2  Z    0.000000   0.130734   0.074826   0.025313   0.000000
   19  H  3  S    0.000000  -0.021540  -0.071733  -0.004390   0.000000
   20  H  3  S    0.000000   0.457185  -0.404277   0.002172   0.000000
   21  H  3  X   -0.003172   0.000000   0.000000   0.000000   0.011616
   22  H  3  Y    0.000000  -0.003185  -0.001470  -0.003847   0.000000
   23  H  3  Z    0.000000  -0.003367  -0.009590   0.012466   0.000000
   24  H  3  S    0.000000  -2.100040  -0.054730  -0.008443   0.000000
   25  H  3  X    0.079747   0.000000   0.000000   0.000000   0.165066
   26  H  3  Y    0.000000   0.063709  -0.043001   0.209573   0.000000
   27  H  3  Z    0.000000   0.130734  -0.074826   0.025313   0.000000
   28  H  4  S    0.000000  -0.017578  -0.008980   0.088962   0.000000
   29  H  4  S    0.000000   0.459804   0.341383  -0.341631   0.000000
   30  H  4  X   -0.008391   0.000000   0.000000   0.000000  -0.008253
   31  H  4  Y    0.000000  -0.000173   0.001327  -0.016656   0.000000
   32  H  4  Z    0.000000   0.004215  -0.010590  -0.016820   0.000000
   33  H  4  S    0.000000  -0.290971  -3.601936  -0.880727   0.000000
   34  H  4  X    0.053149   0.000000   0.000000   0.000000  -0.135301
   35  H  4  Y    0.000000  -0.205384  -0.083338   0.256457   0.000000
   36  H  4  Z    0.000000  -0.080941   0.031039   0.250069   0.000000
   37  H  5  S    0.000000  -0.017578   0.008980   0.088962   0.000000
   38  H  5  S    0.000000   0.459804  -0.341383  -0.341631   0.000000
   39  H  5  X   -0.008391   0.000000   0.000000   0.000000   0.008253
   40  H  5  Y    0.000000   0.000173   0.001327   0.016656   0.000000
   41  H  5  Z    0.000000   0.004215   0.010590  -0.016820   0.000000
   42  H  5  S    0.000000  -0.290971   3.601936  -0.880727   0.000000
   43  H  5  X    0.053149   0.000000   0.000000   0.000000   0.135301
   44  H  5  Y    0.000000   0.205384  -0.083338  -0.256457   0.000000
   45  H  5  Z    0.000000  -0.080941  -0.031039   0.250069   0.000000
   46  C  6  S    0.000000  -0.026061   0.000000  -0.124458   0.000000
   47  C  6  S    0.000000   1.323800   0.000000  -1.026991   0.000000
   48  C  6  X   -0.342303   0.000000   0.000000   0.000000   0.000000
   49  C  6  Y    0.000000   0.000000   0.044327   0.000000   0.000000
   50  C  6  Z    0.000000   0.074688   0.000000  -0.233523   0.000000
   51  C  6  X   -0.236461   0.000000   0.000000   0.000000   0.000000
   52  C  6  Y    0.000000   0.000000   0.508994   0.000000   0.000000
   53  C  6  Z    0.000000  -0.367319   0.000000  -1.064621   0.000000
   54  C  6 XX    0.000000   0.013970   0.000000  -0.002269   0.000000
   55  C  6 YY    0.000000  -0.004240   0.000000  -0.012910   0.000000
   56  C  6 ZZ    0.000000  -0.009730   0.000000   0.015179   0.000000
   57  C  6 XY    0.000000   0.000000   0.000000   0.000000  -0.006915
   58  C  6 XZ    0.005562   0.000000   0.000000   0.000000   0.000000
   59  C  6 YZ    0.000000   0.000000   0.017390   0.000000   0.000000
   60  C  6  S    0.000000  13.860213   0.000000   9.136907   0.000000
   61  C  6  X    1.527389   0.000000   0.000000   0.000000   0.000000
   62  C  6  Y    0.000000   0.000000   7.279280   0.000000   0.000000
   63  C  6  Z    0.000000  -5.427425   0.000000   2.870819   0.000000
   64  C  6 XX    0.000000  -0.057700   0.000000   0.003680   0.000000
   65  C  6 YY    0.000000  -0.124073   0.000000   0.462165   0.000000
   66  C  6 ZZ    0.000000   0.181773   0.000000  -0.465845   0.000000
   67  C  6 XY    0.000000   0.000000   0.000000   0.000000  -0.262338
   68  C  6 XZ    0.116623   0.000000   0.000000   0.000000   0.000000
   69  C  6 YZ    0.000000   0.000000   0.112938   0.000000   0.000000
   70  N  7  S    0.000000  -0.058977  -0.145311  -0.183476   0.000000
   71  N  7  S    0.000000  -0.673883  -0.437643  -0.179376   0.000000
   72  N  7  X   -0.009886   0.000000   0.000000   0.000000  -0.175102
   73  N  7  Y    0.000000   0.034820  -0.023836  -0.095154   0.000000
   74  N  7  Z    0.000000   0.002636   0.013632   0.003980   0.000000
   75  N  7  X    0.035684   0.000000   0.000000   0.000000   0.056137
   76  N  7  Y    0.000000   0.058146   0.023122   0.220345   0.000000
   77  N  7  Z    0.000000   0.050991  -0.042104  -0.042502   0.000000
   78  N  7 XX    0.000000   0.004751  -0.005670  -0.003010   0.000000
   79  N  7 YY    0.000000  -0.003511  -0.006116   0.004253   0.000000
   80  N  7 ZZ    0.000000  -0.001241   0.011785  -0.001243   0.000000
   81  N  7 XY    0.016177   0.000000   0.000000   0.000000   0.008186
   82  N  7 XZ   -0.007005   0.000000   0.000000   0.000000  -0.003682
   83  N  7 YZ    0.000000   0.002307  -0.000548   0.017092   0.000000
   84  N  7  S    0.000000  -6.790518  -5.500546  -1.161235   0.000000
   85  N  7  X   -0.260618   0.000000   0.000000   0.000000   1.503892
   86  N  7  Y    0.000000   1.793517   0.889933   1.153604   0.000000
   87  N  7  Z    0.000000  -0.098967  -1.061609  -1.434821   0.000000
   88  N  7 XX    0.000000   0.099301   0.065221  -0.032039   0.000000
   89  N  7 YY    0.000000  -0.074201  -0.021226   0.060908   0.000000
   90  N  7 ZZ    0.000000  -0.025100  -0.043995  -0.028869   0.000000
   91  N  7 XY   -0.036019   0.000000   0.000000   0.000000  -0.011437
   92  N  7 XZ    0.000905   0.000000   0.000000   0.000000   0.035697
   93  N  7 YZ    0.000000  -0.036974  -0.001251   0.028498   0.000000
   94  N  8  S    0.000000  -0.058977   0.145311  -0.183476   0.000000
   95  N  8  S    0.000000  -0.673883   0.437643  -0.179376   0.000000
   96  N  8  X   -0.009886   0.000000   0.000000   0.000000   0.175102
   97  N  8  Y    0.000000  -0.034820  -0.023836   0.095154   0.000000
   98  N  8  Z    0.000000   0.002636  -0.013632   0.003980   0.000000
   99  N  8  X    0.035684   0.000000   0.000000   0.000000  -0.056137
  100  N  8  Y    0.000000  -0.058146   0.023122  -0.220345   0.000000
  101  N  8  Z    0.000000   0.050991   0.042104  -0.042502   0.000000
  102  N  8 XX    0.000000   0.004751   0.005670  -0.003010   0.000000
  103  N  8 YY    0.000000  -0.003511   0.006116   0.004253   0.000000
  104  N  8 ZZ    0.000000  -0.001241  -0.011785  -0.001243   0.000000
  105  N  8 XY   -0.016177   0.000000   0.000000   0.000000   0.008186
  106  N  8 XZ   -0.007005   0.000000   0.000000   0.000000   0.003682
  107  N  8 YZ    0.000000  -0.002307  -0.000548  -0.017092   0.000000
  108  N  8  S    0.000000  -6.790518   5.500546  -1.161235   0.000000
  109  N  8  X   -0.260618   0.000000   0.000000   0.000000  -1.503892
  110  N  8  Y    0.000000  -1.793517   0.889933  -1.153604   0.000000
  111  N  8  Z    0.000000  -0.098967   1.061609  -1.434821   0.000000
  112  N  8 XX    0.000000   0.099301  -0.065221  -0.032039   0.000000
  113  N  8 YY    0.000000  -0.074201   0.021226   0.060908   0.000000
  114  N  8 ZZ    0.000000  -0.025100   0.043995  -0.028869   0.000000
  115  N  8 XY    0.036019   0.000000   0.000000   0.000000  -0.011437
  116  N  8 XZ    0.000905   0.000000   0.000000   0.000000  -0.035697
  117  N  8 YZ    0.000000   0.036974  -0.001251  -0.028498   0.000000

                     21         22         23         24         25
                    0.0328     0.0466     0.0555     0.0558     0.0776
                     A          A          A          A          A   
    1  H  1  S    0.039627   0.000000  -0.048286   0.000000  -0.087899
    2  H  1  S    0.894562   0.000000   1.304932   0.000000   1.942256
    3  H  1  X    0.000000   0.000000   0.000000   0.009305   0.000000
    4  H  1  Y    0.000000  -0.000981   0.000000   0.000000   0.000000
    5  H  1  Z   -0.005130   0.000000   0.009577   0.000000   0.000439
    6  H  1  S   -2.940551   0.000000   2.193808   0.000000  -6.250043
    7  H  1  X    0.000000   0.000000   0.000000   0.088406   0.000000
    8  H  1  Y    0.000000   0.290972   0.000000   0.000000   0.000000
    9  H  1  Z   -0.460480   0.000000  -0.409768   0.000000  -0.772767
   10  H  2  S   -0.066639   0.014849  -0.043982   0.000000   0.001795
   11  H  2  S    0.594415  -0.154375   0.440793   0.000000   0.014204
   12  H  2  X    0.000000   0.000000   0.000000   0.004214   0.000000
   13  H  2  Y    0.001977  -0.005822  -0.020871   0.000000  -0.009593
   14  H  2  Z   -0.036898   0.012412  -0.012064   0.000000   0.016345
   15  H  2  S    1.606163  -2.422000  -0.345793   0.000000  -1.217868
   16  H  2  X    0.000000   0.000000   0.000000   0.105439   0.000000
   17  H  2  Y    0.042800  -0.182645  -0.078765   0.000000   0.035261
   18  H  2  Z    0.401212  -0.120370   0.411694   0.000000   0.172026
   19  H  3  S   -0.066639  -0.014849  -0.043982   0.000000   0.001795
   20  H  3  S    0.594415   0.154375   0.440793   0.000000   0.014204
   21  H  3  X    0.000000   0.000000   0.000000   0.004214   0.000000
   22  H  3  Y   -0.001977  -0.005822   0.020871   0.000000   0.009593
   23  H  3  Z   -0.036898  -0.012412  -0.012064   0.000000   0.016345
   24  H  3  S    1.606163   2.422000  -0.345793   0.000000  -1.217868
   25  H  3  X    0.000000   0.000000   0.000000   0.105439   0.000000
   26  H  3  Y   -0.042800  -0.182645   0.078765   0.000000  -0.035261
   27  H  3  Z    0.401212   0.120370   0.411694   0.000000   0.172026
   28  H  4  S   -0.047638   0.023204  -0.083255   0.000000  -0.113736
   29  H  4  S    0.099190  -0.072174   0.186366   0.000000   0.594273
   30  H  4  X    0.000000   0.000000   0.000000   0.004938   0.000000
   31  H  4  Y   -0.001595  -0.024530  -0.012092   0.000000   0.035316
   32  H  4  Z    0.003980  -0.006431   0.018171   0.000000   0.017224
   33  H  4  S   -0.037313  -0.780720  -2.111074   0.000000   2.726991
   34  H  4  X    0.000000   0.000000   0.000000   0.362331   0.000000
   35  H  4  Y   -0.026418  -0.188237  -0.324826   0.000000  -0.311327
   36  H  4  Z   -0.212067   0.146386  -0.118366   0.000000  -0.106486
   37  H  5  S   -0.047638  -0.023204  -0.083255   0.000000  -0.113736
   38  H  5  S    0.099190   0.072174   0.186366   0.000000   0.594272
   39  H  5  X    0.000000   0.000000   0.000000   0.004938   0.000000
   40  H  5  Y    0.001595  -0.024530   0.012092   0.000000  -0.035316
   41  H  5  Z    0.003980   0.006431   0.018171   0.000000   0.017224
   42  H  5  S   -0.037313   0.780720  -2.111075   0.000000   2.726991
   43  H  5  X    0.000000   0.000000   0.000000   0.362331   0.000000
   44  H  5  Y    0.026418  -0.188237   0.324826   0.000000   0.311327
   45  H  5  Z   -0.212067  -0.146386  -0.118366   0.000000  -0.106486
   46  C  6  S   -0.133052   0.000000   0.218168   0.000000  -0.126666
   47  C  6  S   -1.633442   0.000000   0.988722   0.000000  -1.811422
   48  C  6  X    0.000000   0.000000   0.000000  -0.282276   0.000000
   49  C  6  Y    0.000000   0.136064   0.000000   0.000000   0.000000
   50  C  6  Z   -0.078742   0.000000  -0.044062   0.000000   0.000777
   51  C  6  X    0.000000   0.000000   0.000000   0.256130   0.000000
   52  C  6  Y    0.000000   1.055198   0.000000   0.000000   0.000000
   53  C  6  Z   -0.851359   0.000000  -1.108113   0.000000  -0.945758
   54  C  6 XX    0.018214   0.000000  -0.018057   0.000000   0.002626
   55  C  6 YY   -0.030576   0.000000   0.015849   0.000000   0.036184
   56  C  6 ZZ    0.012362   0.000000   0.002209   0.000000  -0.038810
   57  C  6 XY    0.000000   0.000000   0.000000   0.000000   0.000000
   58  C  6 XZ    0.000000   0.000000   0.000000   0.001057   0.000000
   59  C  6 YZ    0.000000  -0.015321   0.000000   0.000000   0.000000
   60  C  6  S    3.359784   0.000000   9.810789   0.000000  10.479817
   61  C  6  X    0.000000   0.000000   0.000000   2.809575   0.000000
   62  C  6  Y    0.000000  -0.544477   0.000000   0.000000   0.000000
   63  C  6  Z    1.005086   0.000000  -1.422322   0.000000   4.290509
   64  C  6 XX    0.023400   0.000000   0.345958   0.000000   0.187653
   65  C  6 YY    0.001353   0.000000  -0.058320   0.000000   0.556212
   66  C  6 ZZ   -0.024753   0.000000  -0.287638   0.000000  -0.743865
   67  C  6 XY    0.000000   0.000000   0.000000   0.000000   0.000000
   68  C  6 XZ    0.000000   0.000000   0.000000  -0.190550   0.000000
   69  C  6 YZ    0.000000  -0.624735   0.000000   0.000000   0.000000
   70  N  7  S    0.177721  -0.127549   0.050094   0.000000   0.136479
   71  N  7  S   -0.519384  -1.052885  -0.883623   0.000000  -0.561942
   72  N  7  X    0.000000   0.000000   0.000000   0.287558   0.000000
   73  N  7  Y    0.031723  -0.131430   0.003377   0.000000   0.081302
   74  N  7  Z   -0.173797   0.015050  -0.048363   0.000000   0.189446
   75  N  7  X    0.000000   0.000000   0.000000  -0.007932   0.000000
   76  N  7  Y   -0.077329   0.319440   0.081200   0.000000  -0.194905
   77  N  7  Z    0.241406  -0.148243   0.060222   0.000000  -0.184426
   78  N  7 XX    0.004351  -0.001462   0.003580   0.000000   0.004572
   79  N  7 YY    0.007612   0.000377   0.010099   0.000000  -0.013516
   80  N  7 ZZ   -0.011964   0.001084  -0.013680   0.000000   0.008945
   81  N  7 XY    0.000000   0.000000   0.000000   0.007347   0.000000
   82  N  7 XZ    0.000000   0.000000   0.000000   0.005504   0.000000
   83  N  7 YZ   -0.002099   0.001316  -0.018938   0.000000  -0.012152
   84  N  7  S   -1.846870  -1.703550  -4.292743   0.000000  -3.565779
   85  N  7  X    0.000000   0.000000   0.000000  -2.128427   0.000000
   86  N  7  Y   -0.244173   3.749175   2.835152   0.000000  -0.076127
   87  N  7  Z    0.787084  -0.668257  -1.131727   0.000000  -2.968838
   88  N  7 XX    0.054402  -0.046004   0.025975   0.000000   0.022055
   89  N  7 YY   -0.039044   0.035571  -0.050612   0.000000   0.001609
   90  N  7 ZZ   -0.015357   0.010434   0.024638   0.000000  -0.023664
   91  N  7 XY    0.000000   0.000000   0.000000   0.057086   0.000000
   92  N  7 XZ    0.000000   0.000000   0.000000  -0.022892   0.000000
   93  N  7 YZ   -0.018788  -0.033143   0.003770   0.000000   0.011774
   94  N  8  S    0.177721   0.127549   0.050094   0.000000   0.136479
   95  N  8  S   -0.519384   1.052885  -0.883623   0.000000  -0.561942
   96  N  8  X    0.000000   0.000000   0.000000   0.287558   0.000000
   97  N  8  Y   -0.031723  -0.131430  -0.003377   0.000000  -0.081302
   98  N  8  Z   -0.173797  -0.015050  -0.048363   0.000000   0.189446
   99  N  8  X    0.000000   0.000000   0.000000  -0.007932   0.000000
  100  N  8  Y    0.077329   0.319440  -0.081200   0.000000   0.194905
  101  N  8  Z    0.241406   0.148243   0.060222   0.000000  -0.184426
  102  N  8 XX    0.004351   0.001462   0.003580   0.000000   0.004572
  103  N  8 YY    0.007612  -0.000377   0.010099   0.000000  -0.013516
  104  N  8 ZZ   -0.011964  -0.001084  -0.013680   0.000000   0.008945
  105  N  8 XY    0.000000   0.000000   0.000000  -0.007347   0.000000
  106  N  8 XZ    0.000000   0.000000   0.000000   0.005504   0.000000
  107  N  8 YZ    0.002099   0.001316   0.018938   0.000000   0.012152
  108  N  8  S   -1.846870   1.703550  -4.292743   0.000000  -3.565779
  109  N  8  X    0.000000   0.000000   0.000000  -2.128427   0.000000
  110  N  8  Y    0.244173   3.749175  -2.835152   0.000000   0.076127
  111  N  8  Z    0.787084   0.668257  -1.131727   0.000000  -2.968838
  112  N  8 XX    0.054402   0.046004   0.025975   0.000000   0.022055
  113  N  8 YY   -0.039044  -0.035571  -0.050612   0.000000   0.001609
  114  N  8 ZZ   -0.015357  -0.010434   0.024638   0.000000  -0.023664
  115  N  8 XY    0.000000   0.000000   0.000000  -0.057086   0.000000
  116  N  8 XZ    0.000000   0.000000   0.000000  -0.022892   0.000000
  117  N  8 YZ    0.018788  -0.033143  -0.003770   0.000000  -0.011774

                     26         27         28         29         30
                    0.0799     0.1216     0.1391     0.1494     0.1805
                     A          A          A          A          A   
    1  H  1  S    0.000000   0.000000   0.296870   0.000000  -0.025959
    2  H  1  S    0.000000   0.000000  -2.877804   0.000000  -1.143895
    3  H  1  X    0.000000   0.000000   0.000000  -0.011306   0.000000
    4  H  1  Y    0.006572   0.019094   0.000000   0.000000   0.000000
    5  H  1  Z    0.000000   0.000000  -0.049341   0.000000  -0.008282
    6  H  1  S    0.000000   0.000000   2.023785   0.000000   2.116210
    7  H  1  X    0.000000   0.000000   0.000000  -0.241664   0.000000
    8  H  1  Y    0.154830  -0.760351   0.000000   0.000000   0.000000
    9  H  1  Z    0.000000   0.000000   2.051398   0.000000   0.029178
   10  H  2  S    0.054286  -0.190248  -0.115011   0.000000   0.132215
   11  H  2  S   -0.635324   0.291229   0.588889   0.000000   0.626437
   12  H  2  X    0.000000   0.000000   0.000000  -0.006395   0.000000
   13  H  2  Y   -0.008569  -0.010130   0.000620   0.000000   0.011835
   14  H  2  Z    0.036836  -0.017735  -0.006935   0.000000  -0.003261
   15  H  2  S   -4.066131  -1.057671  -1.618180   0.000000  -1.001951
   16  H  2  X    0.000000   0.000000   0.000000   0.562723   0.000000
   17  H  2  Y    0.098953  -0.292830  -0.089810   0.000000  -0.159963
   18  H  2  Z   -0.208566   0.741609   0.635312   0.000000  -0.602579
   19  H  3  S   -0.054286   0.190248  -0.115011   0.000000   0.132215
   20  H  3  S    0.635324  -0.291229   0.588889   0.000000   0.626437
   21  H  3  X    0.000000   0.000000   0.000000  -0.006395   0.000000
   22  H  3  Y   -0.008569  -0.010130  -0.000620   0.000000  -0.011835
   23  H  3  Z   -0.036836   0.017735  -0.006935   0.000000  -0.003261
   24  H  3  S    4.066132   1.057671  -1.618180   0.000000  -1.001951
   25  H  3  X    0.000000   0.000000   0.000000   0.562723   0.000000
   26  H  3  Y    0.098953  -0.292830   0.089810   0.000000   0.159963
   27  H  3  Z    0.208566  -0.741609   0.635312   0.000000  -0.602579
   28  H  4  S   -0.038019  -0.053600   0.068939   0.000000  -0.033477
   29  H  4  S    0.493407   0.420803   0.343590   0.000000   0.942652
[...]
   82  N  7 XZ    0.000000   0.000000   0.000000   0.000000   0.000000
   83  N  7 YZ   -0.119789  -0.525300   0.045872   0.528336   0.351869
   84  N  7  S    1.123728  -2.073409  -1.951341  -0.140848  -0.636557
   85  N  7  X    0.000000   0.000000   0.000000   0.000000   0.000000
   86  N  7  Y   -0.126417  -0.124437   0.341145   0.421512   0.289836
   87  N  7  Z    0.323536  -0.330070   0.881223   0.387257   0.540597
   88  N  7 XX   -0.064363   0.305612   0.560376   0.321454   0.230242
   89  N  7 YY    0.440972  -0.034296  -0.337428  -0.898898   0.392577
   90  N  7 ZZ   -0.376609  -0.271316  -0.222948   0.577443  -0.622820
   91  N  7 XY    0.000000   0.000000   0.000000   0.000000   0.000000
   92  N  7 XZ    0.000000   0.000000   0.000000   0.000000   0.000000
   93  N  7 YZ   -1.258911  -0.292886  -0.951973   1.059695   0.228678
   94  N  8  S    0.054260  -0.078790   0.526306   1.600665  -0.461971
   95  N  8  S    5.358460   8.185676  -5.101621  -4.319452   2.376678
   96  N  8  X    0.000000   0.000000   0.000000   0.000000   0.000000
   97  N  8  Y   -0.387407  -0.516156  -0.041240   0.078145  -0.041210
   98  N  8  Z   -0.201790   0.002173   0.380594   0.179601  -0.589145
   99  N  8  X    0.000000   0.000000   0.000000   0.000000   0.000000
  100  N  8  Y    0.635450  -1.476143  -0.717475  -4.904666   0.595118
  101  N  8  Z    0.688119   0.291174   1.858950  -1.564553  -2.661151
  102  N  8 XX   -0.444933  -0.399688   0.161205  -0.207630  -0.118777
  103  N  8 YY    0.206030   0.087655   0.331442  -0.056264  -0.645345
  104  N  8 ZZ    0.238903   0.312034  -0.492646   0.263894   0.764122
  105  N  8 XY    0.000000   0.000000   0.000000   0.000000   0.000000
  106  N  8 XZ    0.000000   0.000000   0.000000   0.000000   0.000000
  107  N  8 YZ    0.119789  -0.525300  -0.045872  -0.528336   0.351869
  108  N  8  S    1.123728   2.073410  -1.951340  -0.140848   0.636557
  109  N  8  X    0.000000   0.000000   0.000000   0.000000   0.000000
  110  N  8  Y    0.126417  -0.124437  -0.341145  -0.421512   0.289836
  111  N  8  Z    0.323536   0.330070   0.881223   0.387257  -0.540597
  112  N  8 XX   -0.064363  -0.305612   0.560376   0.321454  -0.230242
  113  N  8 YY    0.440972   0.034296  -0.337428  -0.898898  -0.392577
  114  N  8 ZZ   -0.376609   0.271316  -0.222948   0.577443   0.622820
  115  N  8 XY    0.000000   0.000000   0.000000   0.000000   0.000000
  116  N  8 XZ    0.000000   0.000000   0.000000   0.000000   0.000000
  117  N  8 YZ    1.258911  -0.292886   0.951973  -1.059695   0.228678

                    111
                    4.3736
                     A   
    1  H  1  S   -1.087914
    2  H  1  S   -7.464102
    3  H  1  X    0.000000
    4  H  1  Y    0.000000
    5  H  1  Z   -1.383218
    6  H  1  S    0.148857
    7  H  1  X    0.000000
    8  H  1  Y    0.000000
    9  H  1  Z    1.019364
   10  H  2  S   -1.021942
   11  H  2  S   -1.807184
   12  H  2  X    0.000000
   13  H  2  Y    0.265240
   14  H  2  Z    0.797779
   15  H  2  S   -0.293504
   16  H  2  X    0.000000
   17  H  2  Y    0.372757
   18  H  2  Z   -0.316817
   19  H  3  S   -1.021942
   20  H  3  S   -1.807184
   21  H  3  X    0.000000
   22  H  3  Y   -0.265240
   23  H  3  Z    0.797779
   24  H  3  S   -0.293504
   25  H  3  X    0.000000
   26  H  3  Y   -0.372757
   27  H  3  Z   -0.316817
   28  H  4  S    1.401797
   29  H  4  S    2.699824
   30  H  4  X    0.000000
   31  H  4  Y    0.679598
   32  H  4  Z    0.745342
   33  H  4  S    0.330539
   34  H  4  X    0.000000
   35  H  4  Y   -0.475655
   36  H  4  Z   -0.185231
   37  H  5  S    1.401797
   38  H  5  S    2.699824
   39  H  5  X    0.000000
   40  H  5  Y   -0.679598
   41  H  5  Z    0.745342
   42  H  5  S    0.330539
   43  H  5  X    0.000000
   44  H  5  Y    0.475655
   45  H  5  Z   -0.185231
   46  C  6  S    0.660555
   47  C  6  S    8.525008
   48  C  6  X    0.000000
   49  C  6  Y    0.000000
   50  C  6  Z    0.477922
   51  C  6  X    0.000000
   52  C  6  Y    0.000000
   53  C  6  Z    2.057254
   54  C  6 XX   -0.196420
   55  C  6 YY   -1.056052
   56  C  6 ZZ    1.252472
   57  C  6 XY    0.000000
   58  C  6 XZ    0.000000
   59  C  6 YZ    0.000000
   60  C  6  S    0.408907
   61  C  6  X    0.000000
   62  C  6  Y    0.000000
   63  C  6  Z   -0.558519
   64  C  6 XX   -0.923124
   65  C  6 YY   -1.568949
   66  C  6 ZZ    2.492073
   67  C  6 XY    0.000000
   68  C  6 XZ    0.000000
   69  C  6 YZ    0.000000
   70  N  7  S    0.763467
   71  N  7  S   -2.227502
   72  N  7  X    0.000000
   73  N  7  Y   -0.456878
   74  N  7  Z   -0.199719
   75  N  7  X    0.000000
   76  N  7  Y   -0.268883
   77  N  7  Z   -1.398031
   78  N  7 XX    0.037613
   79  N  7 YY   -0.583474
   80  N  7 ZZ    0.545861
   81  N  7 XY    0.000000
   82  N  7 XZ    0.000000
   83  N  7 YZ   -0.699766
   84  N  7  S   -0.855227
   85  N  7  X    0.000000
   86  N  7  Y   -0.047343
   87  N  7  Z   -0.141925
   88  N  7 XX    0.285180
   89  N  7 YY   -0.931241
   90  N  7 ZZ    0.646061
   91  N  7 XY    0.000000
   92  N  7 XZ    0.000000
   93  N  7 YZ   -0.703500
   94  N  8  S    0.763467
   95  N  8  S   -2.227502
   96  N  8  X    0.000000
   97  N  8  Y    0.456878
   98  N  8  Z   -0.199719
   99  N  8  X    0.000000
  100  N  8  Y    0.268883
  101  N  8  Z   -1.398031
  102  N  8 XX    0.037613
  103  N  8 YY   -0.583474
  104  N  8 ZZ    0.545861
  105  N  8 XY    0.000000
  106  N  8 XZ    0.000000
  107  N  8 YZ    0.699766
  108  N  8  S   -0.855227
  109  N  8  X    0.000000
  110  N  8  Y    0.047343
  111  N  8  Z   -0.141925
  112  N  8 XX    0.285180
  113  N  8 YY   -0.931241
  114  N  8 ZZ    0.646061
  115  N  8 XY    0.000000
  116  N  8 XZ    0.000000
  117  N  8 YZ    0.703500
 ...... END OF RHF CALCULATION ......
 STEP CPU TIME =     1.53 TOTAL CPU TIME =        7.8 (    0.1 MIN)
 TOTAL WALL CLOCK TIME=        8.0 SECONDS, CPU UTILIZATION IS  97.62%

     ----------------------------------------------------------------
     PROPERTY VALUES FOR THE RHF   SELF-CONSISTENT FIELD WAVEFUNCTION
     ----------------------------------------------------------------

          -----------------
          ENERGY COMPONENTS
          -----------------

         WAVEFUNCTION NORMALIZATION =       1.0000000000

                ONE ELECTRON ENERGY =    -130.6730453553
                TWO ELECTRON ENERGY =      56.0640447104
           NUCLEAR REPULSION ENERGY =      46.9132012474
                                      ------------------
                       TOTAL ENERGY =     -27.6957993974

 ELECTRON-ELECTRON POTENTIAL ENERGY =      56.0640447104
  NUCLEUS-ELECTRON POTENTIAL ENERGY =    -152.3398227223
   NUCLEUS-NUCLEUS POTENTIAL ENERGY =      46.9132012474
                                      ------------------
             TOTAL POTENTIAL ENERGY =     -49.3625767645
               TOTAL KINETIC ENERGY =      21.6667773671
                 VIRIAL RATIO (V/T) =       2.2782611335

  ...... PI ENERGY ANALYSIS ......

 ENERGY ANALYSIS:
            FOCK ENERGY=    -18.5449545366
          BARE H ENERGY=   -130.6730453553
     ELECTRONIC ENERGY =    -74.6089999459
         KINETIC ENERGY=     21.6667773671
          N-N REPULSION=     46.9132012474
           TOTAL ENERGY=    -27.6957986985
        SIGMA PART(1+2)=    -59.0830494881
               (K,V1,2)=     15.6618939557   -118.1722157044     43.4272722606
           PI PART(1+2)=    -15.5259504578
               (K,V1,2)=      6.0048834113    -34.1676070179     12.6367731488
  SIGMA SKELETON, ERROR=    -12.1698482407      0.0000000000
             MIXED PART= 0.00000E+00 0.00000E+00 0.00000E+00 0.00000E+00
 ...... END OF PI ENERGY ANALYSIS ......

          ---------------------------------------
          MULLIKEN AND LOWDIN POPULATION ANALYSES
          ---------------------------------------

     MULLIKEN ATOMIC POPULATION IN EACH MOLECULAR ORBITAL

                      1          2          3          4          5

                  2.000000   2.000000   2.000000   2.000000   2.000000

    1             0.013786  -0.006024   0.249976   0.226556   0.001833
    2             0.106002   0.124871   0.145667   0.041230   0.236967
    3             0.106002   0.124871   0.145667   0.041230   0.236967
    4             0.076483   0.153451   0.067879   0.223731  -0.001699
    5             0.076483   0.153451   0.067879   0.223731  -0.001699
    6             1.151384   0.555913   0.499384   0.305298   0.437131
    7             0.234931   0.446733   0.411775   0.469113   0.545250
    8             0.234931   0.446733   0.411775   0.469113   0.545250

                      6          7          8          9

                  2.000000   2.000000   2.000000   2.000000

    1             0.005315   0.566815   0.000454   0.000000
    2             0.058387   0.163076   0.010047   0.014181
    3             0.058387   0.163076   0.010047   0.014181
    4             0.299669   0.036055   0.007678   0.017867
    5             0.299669   0.036055   0.007678   0.017867
    6             0.108085   0.440129   0.583944   0.093626
    7             0.585243   0.297397   0.690076   0.921139
    8             0.585243   0.297397   0.690076   0.921139

               ----- POPULATIONS IN EACH AO -----
                             MULLIKEN      LOWDIN
              1  H  1  S      0.92171     0.48362
              2  H  1  S      0.11812     0.16686
              3  H  1  X      0.00592     0.01402
              4  H  1  Y      0.00454     0.01317
              5  H  1  Z      0.02679     0.05136
              6  H  1  S      0.00459     0.01429
              7  H  1  X     -0.00546     0.01976
              8  H  1  Y     -0.00341     0.02048
              9  H  1  Z     -0.01408     0.04834
             10  H  2  S      0.86854     0.40126
             11  H  2  S     -0.03132     0.12867
             12  H  2  X      0.02083     0.04547
             13  H  2  Y      0.00984     0.02687
             14  H  2  Z      0.03562     0.06273
             15  H  2  S      0.00042     0.01278
             16  H  2  X      0.00340     0.04374
             17  H  2  Y     -0.01600     0.02608
             18  H  2  Z      0.00910     0.06297
             19  H  3  S      0.86854     0.40126
             20  H  3  S     -0.03132     0.12867
             21  H  3  X      0.02083     0.04547
             22  H  3  Y      0.00984     0.02687
             23  H  3  Z      0.03562     0.06273
             24  H  3  S      0.00042     0.01278
             25  H  3  X      0.00340     0.04374
             26  H  3  Y     -0.01600     0.02608
             27  H  3  Z      0.00910     0.06297
             28  H  4  S      0.86013     0.39513
             29  H  4  S     -0.04268     0.12711
             30  H  4  X      0.02232     0.04686
             31  H  4  Y      0.02907     0.05033
             32  H  4  Z      0.01639     0.03753
             33  H  4  S      0.00254     0.01261
             34  H  4  X      0.00322     0.04602
             35  H  4  Y     -0.00594     0.04982
             36  H  4  Z     -0.00394     0.03856
             37  H  5  S      0.86013     0.39513
             38  H  5  S     -0.04268     0.12711
             39  H  5  X      0.02232     0.04686
             40  H  5  Y      0.02907     0.05033
             41  H  5  Z      0.01639     0.03753
             42  H  5  S      0.00254     0.01261
             43  H  5  X      0.00322     0.04602
             44  H  5  Y     -0.00594     0.04982
             45  H  5  Z     -0.00394     0.03856
             46  C  6  S      1.49549     0.30056
             47  C  6  S     -0.11218     0.10595
             48  C  6  X      0.72189     0.41219
             49  C  6  Y      1.07215     0.64238
             50  C  6  Z      1.26299     0.79185
             51  C  6  X     -0.13368     0.10659
             52  C  6  Y     -0.03775     0.14079
             53  C  6  Z     -0.33772     0.16520
             54  C  6 XX      0.03445     0.03746
             55  C  6 YY      0.02472     0.18221
             56  C  6 ZZ      0.05400     0.15978
             57  C  6 XY      0.00821     0.09239
             58  C  6 XZ      0.04054     0.01191
             59  C  6 YZ      0.00000     0.07906
             60  C  6  S      0.00596     0.03323
             61  C  6  X     -0.00769     0.01001
             62  C  6  Y      0.03149     0.02298
             63  C  6  Z      0.00696     0.01424
             64  C  6 XX     -0.00699     0.00049
             65  C  6 YY      0.02252     0.12672
             66  C  6 ZZ      0.03962     0.08451
             67  C  6 XY     -0.00479     0.13912
             68  C  6 XZ     -0.00529     0.01440
             69  C  6 YZ      0.00000     0.11439
             70  N  7  S      1.62816     0.42101
             71  N  7  S     -0.68234     0.15161
             72  N  7  X      1.53609     1.05488
             73  N  7  Y      1.29481     0.88674
             74  N  7  Z      1.33671     0.92284
             75  N  7  X      0.06769     0.29656
             76  N  7  Y     -0.23383     0.27175
             77  N  7  Z     -0.17359     0.29613
             78  N  7 XX      0.00947     0.07989
             79  N  7 YY      0.00591     0.15710
             80  N  7 ZZ      0.00331     0.14636
             81  N  7 XY      0.00087     0.00433
             82  N  7 XZ      0.01214     0.00116
             83  N  7 YZ      0.00000     0.02668
             84  N  7  S     -0.14993     0.04137
             85  N  7  X     -0.00572     0.01962
             86  N  7  Y     -0.01176     0.03156
             87  N  7  Z     -0.04048     0.02352
             88  N  7 XX      0.00290     0.00012
             89  N  7 YY     -0.00162     0.06292
             90  N  7 ZZ      0.00774     0.06228
             91  N  7 XY      0.00124     0.02569
             92  N  7 XZ     -0.00610     0.00548
             93  N  7 YZ      0.00000     0.08569
             94  N  8  S      1.62816     0.42101
             95  N  8  S     -0.68234     0.15161
             96  N  8  X      1.53609     1.05488
             97  N  8  Y      1.29481     0.88674
             98  N  8  Z      1.33671     0.92284
             99  N  8  X      0.06769     0.29656
            100  N  8  Y     -0.23383     0.27175
            101  N  8  Z     -0.17359     0.29613
            102  N  8 XX      0.00947     0.07989
            103  N  8 YY      0.00591     0.15710
            104  N  8 ZZ      0.00331     0.14636
            105  N  8 XY      0.00087     0.00433
            106  N  8 XZ      0.01214     0.00116
            107  N  8 YZ      0.00000     0.02668
            108  N  8  S     -0.14993     0.04137
            109  N  8  X     -0.00572     0.01962
            110  N  8  Y     -0.01176     0.03156
            111  N  8  Z     -0.04048     0.02352
            112  N  8 XX      0.00290     0.00012
            113  N  8 YY     -0.00162     0.06292
            114  N  8 ZZ      0.00774     0.06228
            115  N  8 XY      0.00124     0.02569
            116  N  8 XZ     -0.00610     0.00548
            117  N  8 YZ      0.00000     0.08569

          ----- MULLIKEN ATOMIC OVERLAP POPULATIONS -----
          (OFF-DIAGONAL ELEMENTS NEED TO BE MULTIPLIED BY 2)

             1           2           3           4           5

    1    0.8288949
    2    0.0049437   0.5394864
    3    0.0049437  -0.0034691   0.5394864
    4    0.0015179  -0.0235243  -0.0003670   0.5286963
    5    0.0015179  -0.0003670  -0.0235243   0.0006714   0.5286964
    6    0.2314933  -0.0056604  -0.0056604  -0.0071827  -0.0071827
    7   -0.0073002   0.3895681  -0.0005498   0.3783623   0.0029403
    8   -0.0073002  -0.0005498   0.3895681   0.0029403   0.3783623

             6           7           8

    6    2.9941152
    7    0.4874849   3.3788503
    8    0.4874849  -0.0276995   3.3788503

          TOTAL MULLIKEN AND LOWDIN ATOMIC POPULATIONS
       ATOM         MULL.POP.    CHARGE          LOW.POP.     CHARGE
    1 H             1.058711   -0.058711         0.831901    0.168099
    2 H             0.900428    0.099572         0.810572    0.189428
    3 H             0.900428    0.099572         0.810572    0.189428
    4 H             0.881114    0.118886         0.803983    0.196017
    5 H             0.881114    0.118886         0.803983    0.196017
    6 C             4.174892   -0.174892         3.788414    0.211586
    7 N             4.601657    0.398343         5.075287   -0.075287
    8 N             4.601657    0.398343         5.075287   -0.075287

          MULLIKEN SPHERICAL HARMONIC POPULATIONS
       ATOM           S       P       D      F      G      H      I    TOTAL
    1 H             1.04    0.01    0.00   0.00   0.00   0.00   0.00    1.06
    2 H             0.84    0.06    0.00   0.00   0.00   0.00   0.00    0.90
    3 H             0.84    0.06    0.00   0.00   0.00   0.00   0.00    0.90
    4 H             0.82    0.06    0.00   0.00   0.00   0.00   0.00    0.88
    5 H             0.82    0.06    0.00   0.00   0.00   0.00   0.00    0.88
    6 C             1.39    2.58    0.21   0.00   0.00   0.00   0.00    4.17
    7 N             0.80    3.77    0.04   0.00   0.00   0.00   0.00    4.60
    8 N             0.80    3.77    0.04   0.00   0.00   0.00   0.00    4.60

          -------------------------------
          BOND ORDER AND VALENCE ANALYSIS     BOND ORDER THRESHOLD=0.050
          -------------------------------

                   BOND                       BOND                       BOND
  ATOM PAIR DIST  ORDER      ATOM PAIR DIST  ORDER      ATOM PAIR DIST  ORDER
    1   6  1.085  0.941        2   6  2.038  0.066        2   7  1.009  0.958
    3   6  2.038  0.066        3   8  1.009  0.958        4   6  2.006  0.062
    4   7  1.007  0.947        5   6  2.006  0.062        5   8  1.007  0.947
    6   7  1.304  1.539        6   8  1.304  1.539        7   8  2.316  0.089

                       TOTAL       BONDED        FREE
      ATOM            VALENCE     VALENCE     VALENCE
    1 H                 0.946       0.946       0.000
    2 H                 1.045       1.045       0.000
    3 H                 1.045       1.045       0.000
    4 H                 1.039       1.039       0.000
    5 H                 1.039       1.039       0.000
    6 C                 4.275       4.275       0.000
    7 N                 3.536       3.536       0.000
    8 N                 3.536       3.536       0.000

          ---------------------
          ELECTROSTATIC MOMENTS
          ---------------------

 POINT   1           X           Y           Z (BOHR)    CHARGE
                 0.000000    0.000000    0.000000        1.00 (A.U.)
         DX          DY          DZ         /D/  (DEBYE)
     0.000000    0.000000   -0.007283    0.007283
 ...... END OF PROPERTY EVALUATION ......
 STEP CPU TIME =     0.01 TOTAL CPU TIME =        7.8 (    0.1 MIN)
 TOTAL WALL CLOCK TIME=        8.0 SECONDS, CPU UTILIZATION IS  97.75%
                440000  WORDS OF DYNAMIC MEMORY USED
 EXECUTION OF GAMESS TERMINATED NORMALLY Tue Sep 26 14:48:55 2017
 DDI: 1128 bytes (0.0 MB / 0 MWords) used by master data server.

 ----------------------------------------
 CPU timing information for all processes
 ========================================
 0: 7.488468 + 0.340021 = 7.828489
 ----------------------------------------
 ddikick.x: exited gracefully.
----- accounting info -----
Tue Sep 26 14:48:58 CEST 2017
Files used on the master node lpqlx139 were:
-rw-r--r-- 1 scemama scemama    220900 Sep 26 14:48 /dev/shm//gamess/C1.dat
-rw-r--r-- 1 scemama scemama       974 Sep 26 14:48 /dev/shm//gamess/C1.F05
-rw-r--r-- 1 scemama scemama 147613120 Sep 26 14:48 /dev/shm//gamess/C1.F08
-rw-r--r-- 1 scemama scemama   7198400 Sep 26 14:48 /dev/shm//gamess/C1.F10
0.096u 0.016s 0:11.26 0.8%	0+0k 0+0io 0pf+0w
