----- GAMESS execution script -----
This job is running on host lpqlx139
under operating system Linux at Tue Sep 26 14:51:45 CEST 2017
Available scratch disk space (Kbyte units) at beginning of the job is
Filesystem     1K-blocks    Used Available Use% Mounted on
tmpfs            6592140 2721476   3870664  42% /run/shm

 Distributed Data Interface kickoff program.
 Initiating 1 compute processes on 1 nodes to run the following command:
 /usr/local/gamess/gamess.01.x C3 

          ******************************************************
          *         GAMESS VERSION = 22 FEB 2006 (R5)          *
          *             FROM IOWA STATE UNIVERSITY             *
          * M.W.SCHMIDT, K.K.BALDRIDGE, J.A.BOATZ, S.T.ELBERT, *
          *   M.S.GORDON, J.H.JENSEN, S.KOSEKI, N.MATSUNAGA,   *
          *          K.A.NGUYEN, S.J.SU, T.L.WINDUS,           *
          *       TOGETHER WITH M.DUPUIS, J.A.MONTGOMERY       *
          *         J.COMPUT.CHEM.  14, 1347-1363(1993)        *
          ***************** AMD 64 BIT VERSION *****************

     SINCE 1993, STUDENTS AND POSTDOCS WORKING AT IOWA STATE UNIVERSITY
     AND ALSO IN THEIR VARIOUS JOBS AFTER LEAVING ISU HAVE MADE IMPORTANT
     CONTRIBUTIONS TO THE CODE:
     IVANA ADAMOVIC, CHRISTINE AIKENS, YURI ALEXEEV, POOJA ARORA, ROB BELL,
     PRADIPTA BANDYOPADHYAY, BRETT BODE, GALINA CHABAN, WEI CHEN,
     CHEOL HO CHOI, PAUL DAY, TIM DUDLEY, DMITRI FEDOROV, GRAHAM FLETCHER,
     MARK FREITAG, KURT GLAESEMANN, GRANT MERRILL, TAKESHI NAGATA,
     HEATHER NETZLOFF, BOSILJKA NJEGIC, RYAN OLSON, MIKE PAK, JIM SHOEMAKER,
     LYUDMILA SLIPCHENKO, JIE SONG, TETSUYA TAKETSUGU, SIMON WEBB.

     ADDITIONAL CODE HAS BEEN PROVIDED BY COLLABORATORS IN OTHER GROUPS:
     IOWA STATE UNIVERSITY: JOE IVANIC, KLAUS RUEDENBERG
     UNIVERSITY OF TOKYO: KIMIHIKO HIRAO, HARUYUKI NAKANO, TAKAHITO
          NAKAJIMA, TAKAO TSUNEDA, MUNEAKI KAMIYA, SUSUMU YANAGISAWA,
          KIYOSHI YAGI
     UNIVERSITY OF SOUTHERN DENMARK: FRANK JENSEN
     UNIVERSITY OF IOWA: VISVALDAS KAIRYS, HUI LI
     NATIONAL INST. OF STANDARDS AND TECHNOLOGY: WALT STEVENS, DAVID GARMER
     UNIVERSITY OF PISA: BENEDETTA MENNUCCI, JACOPO TOMASI
     UNIVERSITY OF MEMPHIS: HENRY KURTZ, PRAKASHAN KORAMBATH
     UNIVERSITY OF ALBERTA: MARIUSZ KLOBUKOWSKI
     UNIVERSITY OF NEW ENGLAND: MARK SPACKMAN
     MIE UNIVERSITY: HIROAKI UMEDA
     MICHIGAN STATE UNIVERSITY:
          KAROL KOWALSKI, MARTA WLOCH, PIOTR PIECUCH
     UNIVERSITY OF SILESIA: MONIKA MUSIAL, STANISLAW KUCHARSKI
     FACULTES UNIVERSITAIRES NOTRE-DAME DE LA PAIX:
          OLIVIER QUINET, BENOIT CHAMPAGNE
     UNIVERSITY OF CALIFORNIA - SANTA BARBARA: BERNARD KIRTMAN
     INSTITUTE FOR MOLECULAR SCIENCE: KAZUYA ISHIMURA AND SHIGERU NAGASE
     UNIVERSITY OF NOTRE DAME: DAN CHIPMAN
     KYUSHU UNIVERSITY:
          FENG LONG GU, JACEK KORCHOWIEC, MARCIN MAKOWSKI, AND YURIKO AOKI
     PENNSYLVANIA STATE UNIVERSITY:
          TZVETELIN IORDANOV, CHET SWALINA, SHARON HAMMES-SCHIFFER

 EXECUTION OF GAMESS BEGUN Tue Sep 26 14:51:46 2017

            ECHO OF THE FIRST FEW INPUT CARDS -
 INPUT CARD> $CONTRL                                                                        
 INPUT CARD>   EXETYP=RUN COORD=UNIQUE  UNITS=ANGS                                          
 INPUT CARD>   RUNTYP=ENERGY SCFTYP=RHF CITYP=NONE                                          
 INPUT CARD>   MAXIT=100                                                                    
 INPUT CARD>   ISPHER=1                                                                     
 INPUT CARD>   MULT=1                                                                       
 INPUT CARD>   ICHARG=1                                                                     
 INPUT CARD>   MPLEVL=0                                                                     
 INPUT CARD>   ECP=READ                                                                     
 INPUT CARD> $END                                                                           
 INPUT CARD>                                                                                
 INPUT CARD> $GUESS                                                                         
 INPUT CARD>  GUESS=HUCKEL                                                                  
 INPUT CARD> $END                                                                           
 INPUT CARD>                                                                                
 INPUT CARD> $BASIS                                                                         
 INPUT CARD>  EXTFIL=.TRUE.                                                                 
 INPUT CARD>  GBASIS=BASIS                                                                  
 INPUT CARD> $END                                                                           
 INPUT CARD>                                                                                
 INPUT CARD> $DATA                                                                          
 INPUT CARD>C3                                                                              
 INPUT CARD>C1                                                                              
 INPUT CARD>H  1.0        0.000000    0.000000    1.424526                                  
 INPUT CARD>H  1.0        0.000000    1.160197   -1.449153                                  
 INPUT CARD>H  1.0        0.000000   -1.160197   -1.449153                                  
 INPUT CARD>H  1.0        0.000000    2.531432    1.161940                                  
 INPUT CARD>H  1.0        0.000000   -2.531432    1.161940                                  
 INPUT CARD>H  1.0        0.000000    3.211384   -0.414923                                  
 INPUT CARD>H  1.0        0.000000   -3.211384   -0.414923                                  
 INPUT CARD>C  6.0        0.000000    0.000000    0.340620                                  
 INPUT CARD>C  6.0        0.000000    1.188118   -0.363814                                  
 INPUT CARD>C  6.0        0.000000   -1.188118   -0.363814                                  
 INPUT CARD>N  7.0        0.000000    2.389122    0.164413                                  
 INPUT CARD>N  7.0        0.000000   -2.389122    0.164413                                  
 INPUT CARD> $END                                                                           
 INPUT CARD>                                                                                
 INPUT CARD> $ECP                                                                           
 INPUT CARD>H GEN 0 0                                                                       
 INPUT CARD>3                                                                               
 INPUT CARD>1.00000000 1 4.47692410                                                         
 INPUT CARD>4.47692410 3 2.97636451                                                         
 INPUT CARD>-4.32112340 2 3.01841596                                                        
 INPUT CARD>H GEN 0 0                                                                       
 INPUT CARD>H GEN 0 0                                                                       
 INPUT CARD>H GEN 0 0                                                                       
 INPUT CARD>H GEN 0 0                                                                       
 INPUT CARD>H GEN 0 0                                                                       
 INPUT CARD>H GEN 0 0                                                                       
 INPUT CARD>C GEN 2 1                                                                       

 ..... DONE SETTING UP THE RUN .....
    1000000 WORDS OF MEMORY AVAILABLE

     $BASIS REQUESTS READING THE "BASIS   " BASIS SET FROM AN EXTERNAL FILE


     RUN TITLE
     ---------
 C3                                                                              

 THE POINT GROUP OF THE MOLECULE IS C1      
 THE ORDER OF THE PRINCIPAL AXIS IS     0

 THE EXTERNAL BASIS SET FILE BEING READ IS
     "/home/scemama/Cyanines/Runs/AVDZ_Pseudo/BASIS"
 *** WARNING! ATOM   1 SHELL    1 TYPE S HAS NORMALIZATION   1.32259418
 *** WARNING! ATOM   1 SHELL    3 TYPE P HAS NORMALIZATION  22.65171974
 *** WARNING! ATOM   2 SHELL    6 TYPE S HAS NORMALIZATION   1.32259418
 *** WARNING! ATOM   2 SHELL    8 TYPE P HAS NORMALIZATION  22.65171974
 *** WARNING! ATOM   3 SHELL   11 TYPE S HAS NORMALIZATION   1.32259418
 *** WARNING! ATOM   3 SHELL   13 TYPE P HAS NORMALIZATION  22.65171974
 *** WARNING! ATOM   4 SHELL   16 TYPE S HAS NORMALIZATION   1.32259418
 *** WARNING! ATOM   4 SHELL   18 TYPE P HAS NORMALIZATION  22.65171974
 *** WARNING! ATOM   5 SHELL   21 TYPE S HAS NORMALIZATION   1.32259418
 *** WARNING! ATOM   5 SHELL   23 TYPE P HAS NORMALIZATION  22.65171974
 *** WARNING! ATOM   6 SHELL   26 TYPE S HAS NORMALIZATION   1.32259418
 *** WARNING! ATOM   6 SHELL   28 TYPE P HAS NORMALIZATION  22.65171974
 *** WARNING! ATOM   7 SHELL   31 TYPE S HAS NORMALIZATION   1.32259418
 *** WARNING! ATOM   7 SHELL   33 TYPE P HAS NORMALIZATION  22.65171974

 ATOM      ATOMIC                      COORDINATES (BOHR)
           CHARGE         X                   Y                   Z
 H           1.0     0.0000000000        0.0000000000        2.6919638024
 H           1.0     0.0000000000        2.1924544218       -2.7385020843
 H           1.0     0.0000000000       -2.1924544218       -2.7385020843
 H           1.0     0.0000000000        4.7837128366        2.1957482142
 H           1.0     0.0000000000       -4.7837128366        2.1957482142
 H           1.0     0.0000000000        6.0686358014       -0.7840907760
 H           1.0     0.0000000000       -6.0686358014       -0.7840907760
 C           6.0     0.0000000000        0.0000000000        0.6436784659
 C           6.0     0.0000000000        2.2452174611       -0.6875087705
 C           6.0     0.0000000000       -2.2452174611       -0.6875087705
 N           7.0     0.0000000000        4.5147859312        0.3106955188
 N           7.0     0.0000000000       -4.5147859312        0.3106955188

          INTERNUCLEAR DISTANCES (ANGS.)
          ------------------------------

                    H              H              H              H         

  1  H               0.0000000      3.0990463      3.0990463      2.5450146 *  
  2  H               3.0990463      0.0000000      2.3203940 *    2.9492528 *  
  3  H               3.0990463      2.3203940 *    0.0000000      4.5217177    
  4  H               2.5450146 *    2.9492528 *    4.5217177      0.0000000    
  5  H               2.5450146 *    4.5217177      2.9492528 *    5.0628640    
  6  H               3.7008864      2.2971721 *    4.4922547      1.7172162 *  
  7  H               3.7008864      4.4922547      2.2971721 *    5.9553701    
  8  C               1.0839060 *    2.1329192 *    2.1329192 *    2.6613370 *  
  9  C               2.1470408 *    1.0856981 *    2.5869952 *    2.0328349 *  
 10  C               2.1470408 *    2.5869952 *    1.0856981 *    4.0203206    
 11  N               2.7010718 *    2.0282633 *    3.8988794      1.0076270 *  
 12  N               2.7010718 *    3.8988794      2.0282633 *    5.0206485    

                    H              H              H              C         

  1  H               2.5450146 *    3.7008864      3.7008864      1.0839060 *  
  2  H               4.5217177      2.2971721 *    4.4922547      2.1329192 *  
  3  H               2.9492528 *    4.4922547      2.2971721 *    2.1329192 *  
  4  H               5.0628640      1.7172162 *    5.9553701      2.6613370 *  
  5  H               0.0000000      5.9553701      1.7172162 *    2.6613370 *  
  6  H               5.9553701      0.0000000      6.4227680      3.2990654    
  7  H               1.7172162 *    6.4227680      0.0000000      3.2990654    
  8  C               2.6613370 *    3.2990654      3.2990654      0.0000000    
  9  C               4.0203206      2.0239114 *    4.3997989      1.3812500 *  
 10  C               2.0328349 *    4.3997989      2.0239114 *    1.3812500 *  
 11  N               5.0206485      1.0058554 *    5.6303905      2.3956112 *  
 12  N               1.0076270 *    5.6303905      1.0058554 *    2.3956112 *  

                    C              C              N              N         

  1  H               2.1470408 *    2.1470408 *    2.7010718 *    2.7010718 *  
  2  H               1.0856981 *    2.5869952 *    2.0282633 *    3.8988794    
  3  H               2.5869952 *    1.0856981 *    3.8988794      2.0282633 *  
  4  H               2.0328349 *    4.0203206      1.0076270 *    5.0206485    
  5  H               4.0203206      2.0328349 *    5.0206485      1.0076270 *  
  6  H               2.0239114 *    4.3997989      1.0058554 *    5.6303905    
  7  H               4.3997989      2.0239114 *    5.6303905      1.0058554 *  
  8  C               1.3812500 *    1.3812500 *    2.3956112 *    2.3956112 *  
  9  C               0.0000000      2.3762360 *    1.3120344 *    3.6160296    
 10  C               2.3762360 *    0.0000000      3.6160296      1.3120344 *  
 11  N               1.3120344 *    3.6160296      0.0000000      4.7782440    
 12  N               3.6160296      1.3120344 *    4.7782440      0.0000000    

  * ... LESS THAN  3.000


     ATOMIC BASIS SET
     ----------------
 THE CONTRACTED PRIMITIVE FUNCTIONS HAVE BEEN UNNORMALIZED
 THE CONTRACTED BASIS FUNCTIONS ARE NOW NORMALIZED TO UNITY

  SHELL TYPE  PRIMITIVE        EXPONENT          CONTRACTION COEFFICIENT(S)

 H         

      1   S       1             0.0130000    0.000933751491
      1   S       2             0.0299000   -0.002802577067
      1   S       3             0.0687700    0.076304426024
      1   S       4             0.1581700    0.305115864344
      1   S       5             0.3637920    0.367168015485
      1   S       6             0.8367210    0.224620137364
      1   S       7             1.9244580    0.128877544677
      1   S       8             4.4262540    0.039632857196
      1   S       9            10.1803850   -0.000597812569

      2   S      10             0.1704830    1.000000000000

      3   P      11             0.0030000    0.028133435917
      3   P      12             0.0078000   -0.020681020122
      3   P      13             0.0202810   -0.001223192866
      3   P      14             0.0527300   -0.005391109298
      3   P      15             0.1370970   -0.261174328600
      3   P      16             0.3564510   -0.413054109456
      3   P      17             0.9267740   -0.315515804256
      3   P      18             2.4096120   -0.212812906956
      3   P      19             6.2649910   -0.007860146750

      4   S      20             0.0297400    1.000000000000

      5   P      21             0.1410000    1.000000000000

 H         

      6   S      22             0.0130000    0.000933751491
      6   S      23             0.0299000   -0.002802577067
      6   S      24             0.0687700    0.076304426024
      6   S      25             0.1581700    0.305115864344
      6   S      26             0.3637920    0.367168015485
      6   S      27             0.8367210    0.224620137364
      6   S      28             1.9244580    0.128877544677
      6   S      29             4.4262540    0.039632857196
      6   S      30            10.1803850   -0.000597812569

      7   S      31             0.1704830    1.000000000000

      8   P      32             0.0030000    0.028133435917
      8   P      33             0.0078000   -0.020681020122
      8   P      34             0.0202810   -0.001223192866
      8   P      35             0.0527300   -0.005391109298
      8   P      36             0.1370970   -0.261174328600
      8   P      37             0.3564510   -0.413054109456
      8   P      38             0.9267740   -0.315515804256
      8   P      39             2.4096120   -0.212812906956
      8   P      40             6.2649910   -0.007860146750

      9   S      41             0.0297400    1.000000000000

     10   P      42             0.1410000    1.000000000000

 H         

     11   S      43             0.0130000    0.000933751491
     11   S      44             0.0299000   -0.002802577067
     11   S      45             0.0687700    0.076304426024
     11   S      46             0.1581700    0.305115864344
     11   S      47             0.3637920    0.367168015485
     11   S      48             0.8367210    0.224620137364
     11   S      49             1.9244580    0.128877544677
     11   S      50             4.4262540    0.039632857196
     11   S      51            10.1803850   -0.000597812569

     12   S      52             0.1704830    1.000000000000

     13   P      53             0.0030000    0.028133435917
     13   P      54             0.0078000   -0.020681020122
     13   P      55             0.0202810   -0.001223192866
     13   P      56             0.0527300   -0.005391109298
     13   P      57             0.1370970   -0.261174328600
     13   P      58             0.3564510   -0.413054109456
     13   P      59             0.9267740   -0.315515804256
     13   P      60             2.4096120   -0.212812906956
     13   P      61             6.2649910   -0.007860146750

     14   S      62             0.0297400    1.000000000000

     15   P      63             0.1410000    1.000000000000

 H         

     16   S      64             0.0130000    0.000933751491
     16   S      65             0.0299000   -0.002802577067
     16   S      66             0.0687700    0.076304426024
     16   S      67             0.1581700    0.305115864344
     16   S      68             0.3637920    0.367168015485
     16   S      69             0.8367210    0.224620137364
     16   S      70             1.9244580    0.128877544677
     16   S      71             4.4262540    0.039632857196
     16   S      72            10.1803850   -0.000597812569

     17   S      73             0.1704830    1.000000000000

     18   P      74             0.0030000    0.028133435917
     18   P      75             0.0078000   -0.020681020122
     18   P      76             0.0202810   -0.001223192866
     18   P      77             0.0527300   -0.005391109298
     18   P      78             0.1370970   -0.261174328600
     18   P      79             0.3564510   -0.413054109456
     18   P      80             0.9267740   -0.315515804256
     18   P      81             2.4096120   -0.212812906956
     18   P      82             6.2649910   -0.007860146750

     19   S      83             0.0297400    1.000000000000

     20   P      84             0.1410000    1.000000000000

 H         

     21   S      85             0.0130000    0.000933751491
     21   S      86             0.0299000   -0.002802577067
     21   S      87             0.0687700    0.076304426024
     21   S      88             0.1581700    0.305115864344
     21   S      89             0.3637920    0.367168015485
     21   S      90             0.8367210    0.224620137364
     21   S      91             1.9244580    0.128877544677
     21   S      92             4.4262540    0.039632857196
     21   S      93            10.1803850   -0.000597812569

     22   S      94             0.1704830    1.000000000000

     23   P      95             0.0030000    0.028133435917
     23   P      96             0.0078000   -0.020681020122
     23   P      97             0.0202810   -0.001223192866
     23   P      98             0.0527300   -0.005391109298
     23   P      99             0.1370970   -0.261174328600
     23   P     100             0.3564510   -0.413054109456
     23   P     101             0.9267740   -0.315515804256
     23   P     102             2.4096120   -0.212812906956
     23   P     103             6.2649910   -0.007860146750

     24   S     104             0.0297400    1.000000000000

     25   P     105             0.1410000    1.000000000000

 H         

     26   S     106             0.0130000    0.000933751491
     26   S     107             0.0299000   -0.002802577067
     26   S     108             0.0687700    0.076304426024
     26   S     109             0.1581700    0.305115864344
     26   S     110             0.3637920    0.367168015485
     26   S     111             0.8367210    0.224620137364
     26   S     112             1.9244580    0.128877544677
     26   S     113             4.4262540    0.039632857196
     26   S     114            10.1803850   -0.000597812569

     27   S     115             0.1704830    1.000000000000

     28   P     116             0.0030000    0.028133435917
     28   P     117             0.0078000   -0.020681020122
     28   P     118             0.0202810   -0.001223192866
     28   P     119             0.0527300   -0.005391109298
     28   P     120             0.1370970   -0.261174328600
     28   P     121             0.3564510   -0.413054109456
     28   P     122             0.9267740   -0.315515804256
     28   P     123             2.4096120   -0.212812906956
     28   P     124             6.2649910   -0.007860146750

     29   S     125             0.0297400    1.000000000000

     30   P     126             0.1410000    1.000000000000

 H         

     31   S     127             0.0130000    0.000933751491
     31   S     128             0.0299000   -0.002802577067
     31   S     129             0.0687700    0.076304426024
     31   S     130             0.1581700    0.305115864344
     31   S     131             0.3637920    0.367168015485
     31   S     132             0.8367210    0.224620137364
     31   S     133             1.9244580    0.128877544677
     31   S     134             4.4262540    0.039632857196
     31   S     135            10.1803850   -0.000597812569

     32   S     136             0.1704830    1.000000000000

     33   P     137             0.0030000    0.028133435917
     33   P     138             0.0078000   -0.020681020122
     33   P     139             0.0202810   -0.001223192866
     33   P     140             0.0527300   -0.005391109298
     33   P     141             0.1370970   -0.261174328600
     33   P     142             0.3564510   -0.413054109456
     33   P     143             0.9267740   -0.315515804256
     33   P     144             2.4096120   -0.212812906956
     33   P     145             6.2649910   -0.007860146750

     34   S     146             0.0297400    1.000000000000

     35   P     147             0.1410000    1.000000000000

 C         

     36   S     148             0.0513440    0.013990987871
     36   S     149             0.1026190    0.169851852753
     36   S     150             0.2051000    0.397528655377
     36   S     151             0.4099240    0.380368670253
     36   S     152             0.8192970    0.180112843858
     36   S     153             1.6374940   -0.033511970948
     36   S     154             3.2727910   -0.121498894671
     36   S     155             6.5411870    0.015175986844
     36   S     156            13.0735940   -0.000704999389

     37   S     157             0.1278520    1.000000000000

     38   P     158             0.0292810    0.001787000047
     38   P     159             0.0585470    0.050426001336
     38   P     160             0.1170630    0.191634005079
     38   P     161             0.2340640    0.302667008021
     38   P     162             0.4680030    0.289868007682
     38   P     163             0.9357570    0.210979005591
     38   P     164             1.8710160    0.112024002969
     38   P     165             3.7410350    0.054425001442
     38   P     166             7.4800760    0.021931000581

     39   P     167             0.1491610    1.000000000000

     40   D     168             0.5611600    1.000000000000

     41   S     169             0.0469000    1.000000000000

     42   P     170             0.0404100    1.000000000000

     43   D     171             0.1510000    1.000000000000

 C         

     44   S     172             0.0513440    0.013990987871
     44   S     173             0.1026190    0.169851852753
     44   S     174             0.2051000    0.397528655377
     44   S     175             0.4099240    0.380368670253
     44   S     176             0.8192970    0.180112843858
     44   S     177             1.6374940   -0.033511970948
     44   S     178             3.2727910   -0.121498894671
     44   S     179             6.5411870    0.015175986844
     44   S     180            13.0735940   -0.000704999389

     45   S     181             0.1278520    1.000000000000

     46   P     182             0.0292810    0.001787000047
     46   P     183             0.0585470    0.050426001336
     46   P     184             0.1170630    0.191634005079
     46   P     185             0.2340640    0.302667008021
     46   P     186             0.4680030    0.289868007682
     46   P     187             0.9357570    0.210979005591
     46   P     188             1.8710160    0.112024002969
     46   P     189             3.7410350    0.054425001442
     46   P     190             7.4800760    0.021931000581

     47   P     191             0.1491610    1.000000000000

     48   D     192             0.5611600    1.000000000000

     49   S     193             0.0469000    1.000000000000

     50   P     194             0.0404100    1.000000000000

     51   D     195             0.1510000    1.000000000000

 C         

     52   S     196             0.0513440    0.013990987871
     52   S     197             0.1026190    0.169851852753
     52   S     198             0.2051000    0.397528655377
     52   S     199             0.4099240    0.380368670253
     52   S     200             0.8192970    0.180112843858
     52   S     201             1.6374940   -0.033511970948
     52   S     202             3.2727910   -0.121498894671
     52   S     203             6.5411870    0.015175986844
     52   S     204            13.0735940   -0.000704999389

     53   S     205             0.1278520    1.000000000000

     54   P     206             0.0292810    0.001787000047
     54   P     207             0.0585470    0.050426001336
     54   P     208             0.1170630    0.191634005079
     54   P     209             0.2340640    0.302667008021
     54   P     210             0.4680030    0.289868007682
     54   P     211             0.9357570    0.210979005591
     54   P     212             1.8710160    0.112024002969
     54   P     213             3.7410350    0.054425001442
     54   P     214             7.4800760    0.021931000581

     55   P     215             0.1491610    1.000000000000

     56   D     216             0.5611600    1.000000000000

     57   S     217             0.0469000    1.000000000000

     58   P     218             0.0404100    1.000000000000

     59   D     219             0.1510000    1.000000000000

 N         

     60   S     220             0.0988690    0.067266010234
     60   S     221             0.2114430    0.334290050859
     60   S     222             0.4521970    0.454257069111
     60   S     223             0.9670800    0.267861040752
     60   S     224             2.0682210    0.000248000038
     60   S     225             4.4231500   -0.132606020175
     60   S     226             9.4594620    0.014437002196
     60   S     227            20.2302460    0.000359000055
     60   S     228            43.2649190   -0.000094000014

     61   S     229             0.1751230    1.000000000000

     62   P     230             0.0732340    0.035757988749
     62   P     231             0.1458670    0.153944951562
     62   P     232             0.2905350    0.277655912638
     62   P     233             0.5786830    0.297675906338
     62   P     234             1.1526120    0.234402926247
     62   P     235             2.2957560    0.140320955849
     62   P     236             4.5726520    0.067218978850
     62   P     237             9.1077390    0.031593990059
     62   P     238            18.1406570    0.003300998961

     63   P     239             0.2230420    1.000000000000

     64   D     240             0.8320580    1.000000000000

     65   S     241             0.0612400    1.000000000000

     66   P     242             0.0561100    1.000000000000

     67   D     243             0.2300000    1.000000000000

 N         

     68   S     244             0.0988690    0.067266010234
     68   S     245             0.2114430    0.334290050859
     68   S     246             0.4521970    0.454257069111
     68   S     247             0.9670800    0.267861040752
     68   S     248             2.0682210    0.000248000038
     68   S     249             4.4231500   -0.132606020175
     68   S     250             9.4594620    0.014437002196
     68   S     251            20.2302460    0.000359000055
     68   S     252            43.2649190   -0.000094000014

     69   S     253             0.1751230    1.000000000000

     70   P     254             0.0732340    0.035757988749
     70   P     255             0.1458670    0.153944951562
     70   P     256             0.2905350    0.277655912638
     70   P     257             0.5786830    0.297675906338
     70   P     258             1.1526120    0.234402926247
     70   P     259             2.2957560    0.140320955849
     70   P     260             4.5726520    0.067218978850
     70   P     261             9.1077390    0.031593990059
     70   P     262            18.1406570    0.003300998961

     71   P     263             0.2230420    1.000000000000

     72   D     264             0.8320580    1.000000000000

     73   S     265             0.0612400    1.000000000000

     74   P     266             0.0561100    1.000000000000

     75   D     267             0.2300000    1.000000000000

 TOTAL NUMBER OF BASIS SET SHELLS             =   75
 NUMBER OF CARTESIAN GAUSSIAN BASIS FUNCTIONS =  183
 NOTE: THIS RUN WILL RESTRICT THE MO VARIATION SPACE TO SPHERICAL HARMONICS.
 THE NUMBER OF ORBITALS KEPT IN THE VARIATIONAL SPACE WILL BE PRINTED LATER.
 NUMBER OF ELECTRONS                          =   38
 CHARGE OF MOLECULE                           =    1
 SPIN MULTIPLICITY                            =    1
 NUMBER OF OCCUPIED ORBITALS (ALPHA)          =   19
 NUMBER OF OCCUPIED ORBITALS (BETA )          =   19
 TOTAL NUMBER OF ATOMS                        =   12
 THE NUCLEAR REPULSION ENERGY IS      165.8640811568
 NOTE THIS RUN IS USING CORE POTENTIALS, AND THE NUMBER OF ELECTRONS,
 OCCUPIED ORBITALS, AND NUCLEAR REPULSION ENERGY WILL BE ADJUSTED BELOW
 AFTER REMOVAL OF THE CORE CHARGES.

     $CONTRL OPTIONS
     ---------------
 SCFTYP=RHF          RUNTYP=ENERGY       EXETYP=RUN     
 MPLEVL=       0     CITYP =NONE         CCTYP =NONE         VBTYP =NONE    
 MULT  =       1     ICHARG=       1     NZVAR =       0     COORD =UNIQUE  
 PP    =READ         RELWFN=NONE         LOCAL =NONE         NUMGRD=       F
 ISPHER=       1     NOSYM =       0     MAXIT =     100     UNITS =ANGS    
 PLTORB=       F     MOLPLT=       F     AIMPAC=       F     FRIEND=        
 NPRINT=       7     IREST =       0     GEOM  =INPUT   
 NORMF =       0     NORMP =       0     ITOL  =      20     ICUT  =       9
 INTTYP=BEST         GRDTYP=BEST         QMTTOL= 1.0E-06

     $SYSTEM OPTIONS
     ---------------
  REPLICATED MEMORY=     1000000 WORDS (ON EVERY NODE).
 DISTRIBUTED MEMDDI=           0 MILLION WORDS IN AGGREGATE,
 MEMDDI DISTRIBUTED OVER   1 PROCESSORS IS           0 WORDS/PROCESSOR.
 TOTAL MEMORY REQUESTED ON EACH PROCESSOR=     1000000 WORDS.
 TIMLIM=      525600.00 MINUTES, OR   365.00 DAYS.
 PARALL= F  BALTYP=  NXTVAL  KDIAG=    0  COREFL= F

          --------------
          ECP POTENTIALS
          --------------

 PARAMETERS FOR "H       " ON ATOM    1 WITH ZCORE   0 AND LMAX  0 ARE
 FOR L= 0      COEFF    N           ZETA
    1        1.00000    1        4.47692
    2        4.47692    3        2.97636
    3       -4.32112    2        3.01842

 PARAMETERS FOR "H       " ON ATOM    2 ARE THE SAME AS ATOM   1

 PARAMETERS FOR "H       " ON ATOM    3 ARE THE SAME AS ATOM   1

 PARAMETERS FOR "H       " ON ATOM    4 ARE THE SAME AS ATOM   1

 PARAMETERS FOR "H       " ON ATOM    5 ARE THE SAME AS ATOM   1

 PARAMETERS FOR "H       " ON ATOM    6 ARE THE SAME AS ATOM   1

 PARAMETERS FOR "H       " ON ATOM    7 ARE THE SAME AS ATOM   1

 PARAMETERS FOR "C       " ON ATOM    8 WITH ZCORE   2 AND LMAX  1 ARE
 FOR L= 1      COEFF    N           ZETA
    1        4.00000    1        8.35974
    2       33.43895    3        4.48362
    3      -19.17537    2        3.93831
 FOR L= 0      COEFF    N           ZETA
    1       22.55164    2        5.02992

 PARAMETERS FOR "C       " ON ATOM    9 ARE THE SAME AS ATOM   8

 PARAMETERS FOR "C       " ON ATOM   10 ARE THE SAME AS ATOM   8

 PARAMETERS FOR "N       " ON ATOM   11 WITH ZCORE   2 AND LMAX  1 ARE
 FOR L= 1      COEFF    N           ZETA
    1        5.00000    1        9.23501
    2       46.17505    3        7.66830
    3      -30.18894    2        7.34486
 FOR L= 0      COEFF    N           ZETA
    1       31.69720    2        6.99537

 PARAMETERS FOR "N       " ON ATOM   12 ARE THE SAME AS ATOM  11

 THE ECP RUN REMOVES   10 CORE ELECTRONS, AND THE SAME NUMBER OF PROTONS.
 NUMBER OF ELECTRONS KEPT IN THE CALCULATION IS =   28
 NUMBER OF OCCUPIED ORBITALS (ALPHA) KEPT IS    =   14
 NUMBER OF OCCUPIED ORBITALS (BETA ) KEPT IS    =   14
 THE ADJUSTED NUCLEAR REPULSION ENERGY=       91.8959155152
          ECP ANGULAR INTS.........     0.00 SECONDS

          ----------------
          PROPERTIES INPUT
          ----------------

     MOMENTS            FIELD           POTENTIAL          DENSITY
 IEMOM =       1   IEFLD =       0   IEPOT =       0   IEDEN =       0
 WHERE =COMASS     WHERE =NUCLEI     WHERE =NUCLEI     WHERE =NUCLEI  
 OUTPUT=BOTH       OUTPUT=BOTH       OUTPUT=BOTH       OUTPUT=BOTH    
 IEMINT=       0   IEFINT=       0                     IEDINT=       0
                                                       MORB  =       0
          EXTRAPOLATION IN EFFECT
          SOSCF IN EFFECT
 ORBITAL PRINTING OPTION: NPREO=   1 183   2   1

     -------------------------------
     INTEGRAL TRANSFORMATION OPTIONS
     -------------------------------
     NWORD  =       0     CUTOFF = 1.0E-09
     MPTRAN =       0     DIRTRF =       F
     AOINTS =DUP     

          ----------------------
          INTEGRAL INPUT OPTIONS
          ----------------------
 NOPK  =       1 NORDER=       0 SCHWRZ=       T

     ------------------------------------------
     THE POINT GROUP IS C1 , NAXIS= 0, ORDER= 1
     ------------------------------------------

 -- VARIATIONAL SPACE WILL BE RESTRICTED TO PURE SPHERICAL HARMONICS ONLY --
 AFTER EXCLUDING CONTAMINANT COMBINATIONS FROM THE CARTESIAN GAUSSIAN BASIS
 SET, THE NUMBER OF SPHERICAL HARMONICS KEPT IN THE VARIATION SPACE IS  173

     DIMENSIONS OF THE SYMMETRY SUBSPACES ARE
 A   =  173

 ..... DONE SETTING UP THE RUN .....
 STEP CPU TIME =     0.00 TOTAL CPU TIME =        0.0 (    0.0 MIN)
 TOTAL WALL CLOCK TIME=        0.0 SECONDS, CPU UTILIZATION IS 100.00%

          ********************
          1 ELECTRON INTEGRALS
          ********************
 TIME TO DO ORDINARY INTEGRALS=      0.05
 TIME TO DO      ECP INTEGRALS=      0.37
 ...... END OF ONE-ELECTRON INTEGRALS ......
 STEP CPU TIME =     0.42 TOTAL CPU TIME =        0.4 (    0.0 MIN)
 TOTAL WALL CLOCK TIME=        0.0 SECONDS, CPU UTILIZATION IS 100.00%

          -------------
          GUESS OPTIONS
          -------------
          GUESS =HUCKEL            NORB  =       0          NORDER=       0
          MIX   =       F          PRTMO =       F          PUNMO =       F
          TOLZ  = 1.0E-08          TOLE  = 1.0E-05
          SYMDEN=       F          PURIFY=       F

 INITIAL GUESS ORBITALS GENERATED BY HUCKEL   ROUTINE.
 HUCKEL GUESS REQUIRES    253689 WORDS.

 STATISTICS FOR GENERATION OF SYMMETRY ORBITAL -Q- MATRIX
 NUMBER OF CARTESIAN ATOMIC ORBITALS=        183
 NUMBER OF SPHERICAL CONTAMINANTS DROPPED=    10
 NUMBER OF LINEARLY DEPENDENT MOS DROPPED=     0
 TOTAL NUMBER OF MOS IN VARIATION SPACE=     173

                    * * * * * WARNING * * * * *
 POSSIBLE LINEAR DEPENDENCE PROBLEMS DETECTED, INPUT QMTTOL= 1.0E-06,
 WITH     2 OVERLAP EIGENVALUES LYING BETWEEN 1.0E-05 AND QMTTOL.
 IF YOU EXPERIENCE SCF CONVERGENCE DIFFICULTIES WITH THE DENSITY ALMOST BUT
 NOT QUITE CONVERGED, YOU MAY NEED TO LOOSEN -QMTTOL- BY A FACTOR 5 TO 10.

 SYMMETRIES FOR INITIAL GUESS ORBITALS FOLLOW.   BOTH SET(S).
    14 ORBITALS ARE OCCUPIED (    0 CORE ORBITALS).
     1=A        2=A        3=A        4=A        5=A        6=A        7=A   
     8=A        9=A       10=A       11=A       12=A       13=A       14=A   
    15=A       16=A       17=A       18=A       19=A       20=A       21=A   
    22=A       23=A       24=A   
 ...... END OF INITIAL ORBITAL SELECTION ......
 STEP CPU TIME =     0.05 TOTAL CPU TIME =        0.5 (    0.0 MIN)
 TOTAL WALL CLOCK TIME=        0.0 SECONDS, CPU UTILIZATION IS 100.00%

                    ----------------------
                    AO INTEGRAL TECHNOLOGY
                    ----------------------
     S,P,L SHELL ROTATED AXIS INTEGRALS, REPROGRAMMED BY
        KAZUYA ISHIMURA (IMS) AND JOSE SIERRA (SYNSTAR).
     S,P,D,L SHELL ROTATED AXIS INTEGRALS PROGRAMMED BY
        KAZUYA ISHIMURA (INSTITUTE FOR MOLECULAR SCIENCE).
     S,P,D,F,G SHELL TO TOTAL QUARTET ANGULAR MOMENTUM SUM 5,
        ERIC PROGRAM BY GRAHAM FLETCHER (ELORET AND NASA ADVANCED
        SUPERCOMPUTING DIVISION, AMES RESEARCH CENTER).
     S,P,D,F,G,L SHELL GENERAL RYS QUADRATURE PROGRAMMED BY
        MICHEL DUPUIS (PACIFIC NORTHWEST NATIONAL LABORATORY).

          --------------------
          2 ELECTRON INTEGRALS
          --------------------

 THE -PK- OPTION IS OFF, THE INTEGRALS ARE NOT IN SUPERMATRIX FORM.
 STORING   15000 INTEGRALS/RECORD ON DISK, USING 12 BYTES/INTEGRAL.
 TWO ELECTRON INTEGRAL EVALUATION REQUIRES   93246 WORDS OF MEMORY.
 SCHWARZ INEQUALITY OVERHEAD:     16836 INTEGRALS, T=        0.10
 II,JST,KST,LST =  1  1  1  1 NREC =         1 INTLOC =    1
 II,JST,KST,LST =  2  1  1  1 NREC =         1 INTLOC =    2
 II,JST,KST,LST =  3  1  1  1 NREC =         1 INTLOC =    7
 II,JST,KST,LST =  4  1  1  1 NREC =         1 INTLOC =   34
 II,JST,KST,LST =  5  1  1  1 NREC =         1 INTLOC =   67
 II,JST,KST,LST =  6  1  1  1 NREC =         1 INTLOC =  214
 II,JST,KST,LST =  7  1  1  1 NREC =         1 INTLOC =  529
 II,JST,KST,LST =  8  1  1  1 NREC =         1 INTLOC =  960
 II,JST,KST,LST =  9  1  1  1 NREC =         1 INTLOC = 2759
 II,JST,KST,LST = 10  1  1  1 NREC =         1 INTLOC = 3764
 II,JST,KST,LST = 11  1  1  1 NREC =         1 INTLOC = 7491
 II,JST,KST,LST = 12  1  1  1 NREC =         1 INTLOC = 9438
 II,JST,KST,LST = 13  1  1  1 NREC =         1 INTLOC =11734
 II,JST,KST,LST = 14  1  1  1 NREC =         2 INTLOC = 4519
 II,JST,KST,LST = 15  1  1  1 NREC =         2 INTLOC = 8267
 II,JST,KST,LST = 16  1  1  1 NREC =         3 INTLOC = 5470
 II,JST,KST,LST = 17  1  1  1 NREC =         3 INTLOC =12044
 II,JST,KST,LST = 18  1  1  1 NREC =         4 INTLOC = 4435
 II,JST,KST,LST = 19  1  1  1 NREC =         5 INTLOC =13429
 II,JST,KST,LST = 20  1  1  1 NREC =         6 INTLOC = 9169
 II,JST,KST,LST = 21  1  1  1 NREC =         8 INTLOC =13306
 II,JST,KST,LST = 22  1  1  1 NREC =         9 INTLOC =13255
 II,JST,KST,LST = 23  1  1  1 NREC =        10 INTLOC =14572
 II,JST,KST,LST = 24  1  1  1 NREC =        14 INTLOC = 5077
 II,JST,KST,LST = 25  1  1  1 NREC =        15 INTLOC =11743
 II,JST,KST,LST = 26  1  1  1 NREC =        20 INTLOC = 2947
 II,JST,KST,LST = 27  1  1  1 NREC =        22 INTLOC = 1825
 II,JST,KST,LST = 28  1  1  1 NREC =        24 INTLOC = 2837
 II,JST,KST,LST = 29  1  1  1 NREC =        30 INTLOC = 6966
 II,JST,KST,LST = 30  1  1  1 NREC =        33 INTLOC = 1369
 II,JST,KST,LST = 31  1  1  1 NREC =        40 INTLOC =14955
 II,JST,KST,LST = 32  1  1  1 NREC =        44 INTLOC = 3932
 II,JST,KST,LST = 33  1  1  1 NREC =        47 INTLOC =10582
 II,JST,KST,LST = 34  1  1  1 NREC =        57 INTLOC =14926
 II,JST,KST,LST = 35  1  1  1 NREC =        62 INTLOC = 3559
 II,JST,KST,LST = 36  1  1  1 NREC =        74 INTLOC =10248
 II,JST,KST,LST = 37  1  1  1 NREC =        79 INTLOC =12554
 II,JST,KST,LST = 38  1  1  1 NREC =        85 INTLOC = 3949
 II,JST,KST,LST = 39  1  1  1 NREC =       101 INTLOC = 2890
 II,JST,KST,LST = 40  1  1  1 NREC =       119 INTLOC = 3836
 II,JST,KST,LST = 41  1  1  1 NREC =       162 INTLOC = 6629
 II,JST,KST,LST = 42  1  1  1 NREC =       171 INTLOC = 7117
 II,JST,KST,LST = 43  1  1  1 NREC =       197 INTLOC =13801
 II,JST,KST,LST = 44  1  1  1 NREC =       259 INTLOC = 9296
 II,JST,KST,LST = 45  1  1  1 NREC =       272 INTLOC = 9463
 II,JST,KST,LST = 46  1  1  1 NREC =       286 INTLOC = 2151
 II,JST,KST,LST = 47  1  1  1 NREC =       325 INTLOC =11086
 II,JST,KST,LST = 48  1  1  1 NREC =       369 INTLOC = 4492
 II,JST,KST,LST = 49  1  1  1 NREC =       469 INTLOC = 2892
 II,JST,KST,LST = 50  1  1  1 NREC =       489 INTLOC = 3360
 II,JST,KST,LST = 51  1  1  1 NREC =       547 INTLOC =12925
 II,JST,KST,LST = 52  1  1  1 NREC =       680 INTLOC = 7716
 II,JST,KST,LST = 53  1  1  1 NREC =       706 INTLOC =11558
 II,JST,KST,LST = 54  1  1  1 NREC =       733 INTLOC =12092
 II,JST,KST,LST = 55  1  1  1 NREC =       812 INTLOC = 9402
 II,JST,KST,LST = 56  1  1  1 NREC =       897 INTLOC = 8067
 II,JST,KST,LST = 57  1  1  1 NREC =      1086 INTLOC = 8580
 II,JST,KST,LST = 58  1  1  1 NREC =      1123 INTLOC = 6559
 II,JST,KST,LST = 59  1  1  1 NREC =      1230 INTLOC =11676
 II,JST,KST,LST = 60  1  1  1 NREC =      1467 INTLOC = 9926
 II,JST,KST,LST = 61  1  1  1 NREC =      1514 INTLOC = 6498
 II,JST,KST,LST = 62  1  1  1 NREC =      1562 INTLOC = 5530
 II,JST,KST,LST = 63  1  1  1 NREC =      1701 INTLOC =14745
 II,JST,KST,LST = 64  1  1  1 NREC =      1850 INTLOC = 9916
 II,JST,KST,LST = 65  1  1  1 NREC =      2170 INTLOC = 1040
 II,JST,KST,LST = 66  1  1  1 NREC =      2232 INTLOC = 8266
 II,JST,KST,LST = 67  1  1  1 NREC =      2414 INTLOC = 6774
 II,JST,KST,LST = 68  1  1  1 NREC =      2810 INTLOC = 5223
 II,JST,KST,LST = 69  1  1  1 NREC =      2885 INTLOC = 7456
 II,JST,KST,LST = 70  1  1  1 NREC =      2962 INTLOC = 2014
 II,JST,KST,LST = 71  1  1  1 NREC =      3184 INTLOC =12295
 II,JST,KST,LST = 72  1  1  1 NREC =      3417 INTLOC = 3262
 II,JST,KST,LST = 73  1  1  1 NREC =      3885 INTLOC = 1942
 II,JST,KST,LST = 74  1  1  1 NREC =      3981 INTLOC = 4055
 II,JST,KST,LST = 75  1  1  1 NREC =      4260 INTLOC = 2679
 SCHWARZ INEQUALITY TEST SKIPPED      3531 INTEGRAL BLOCKS.
 TOTAL NUMBER OF NONZERO TWO-ELECTRON INTEGRALS =            72753049
       4851 INTEGRAL RECORDS WERE STORED ON DISK FILE  8.
  ...... END OF TWO-ELECTRON INTEGRALS .....
 STEP CPU TIME =    29.89 TOTAL CPU TIME =       30.4 (    0.5 MIN)
 TOTAL WALL CLOCK TIME=       30.0 SECONDS, CPU UTILIZATION IS 101.20%

          --------------------------
                 RHF SCF CALCULATION
          --------------------------

     NUCLEAR ENERGY =        91.8959155152
     MAXIT =  100     NPUNCH=    2
     EXTRAP=T  DAMP=F  SHIFT=F  RSTRCT=F  DIIS=F  DEM=F  SOSCF=T
     DENSITY MATRIX CONV=  1.00E-05
     SOSCF WILL OPTIMIZE    2226 ORBITAL ROTATIONS, SOGTOL=   0.250
     MEMORY REQUIRED FOR RHF STEP=    275889 WORDS.

 ITER EX DEM     TOTAL ENERGY        E CHANGE  DENSITY CHANGE     ORB. GRAD
   1  0  0      -39.3152400431   -39.3152400431   3.041150440   0.000000000
          ---------------START SECOND ORDER SCF---------------
   2  1  0      -39.8370265037    -0.5217864606   0.792187104   0.054275059
   3  2  0      -39.8871235369    -0.0500970332   0.145627530   0.027747303
   4  3  0      -39.9008003409    -0.0136768040   0.282543693   0.004238565
   5  4  0      -39.9015906456    -0.0007903047   0.030909140   0.002108699
   6  5  0      -39.9016865263    -0.0000958808   0.005751366   0.000368935
   7  6  0      -39.9016917751    -0.0000052487   0.002487702   0.000098528
   8  7  0      -39.9016921790    -0.0000004039   0.000428804   0.000029565
   9  8  0      -39.9016921937    -0.0000000147   0.000163518   0.000008795
  10  9  0      -39.9016921956    -0.0000000019   0.000039770   0.000001637
  11 10  0      -39.9016921958    -0.0000000001   0.000018632   0.000000569
  12 11  0      -39.9016921958     0.0000000000   0.000002867   0.000000162

          -----------------
          DENSITY CONVERGED
          -----------------
     TIME TO FORM FOCK OPERATORS=       9.5 SECONDS (       0.8 SEC/ITER)
     TIME TO SOLVE SCF EQUATIONS=       0.1 SECONDS (       0.0 SEC/ITER)

 FINAL RHF ENERGY IS      -39.9016921958 AFTER  12 ITERATIONS

          ------------
          EIGENVECTORS
          ------------

                      1          2          3          4          5
                   -1.4539    -1.4439    -1.2448    -1.0851    -1.0089
                     A          A          A          A          A   
    1  H  1  S    0.040884   0.000000   0.121085   0.000000   0.194530
    2  H  1  S   -0.007175   0.000000  -0.024256   0.000000   0.076795
    3  H  1  X    0.000000   0.000000   0.000000   0.000000   0.000000
    4  H  1  Y    0.000000  -0.000731   0.000000   0.004918   0.000000
    5  H  1  Z    0.008064   0.000000   0.017211   0.000000   0.017617
    6  H  1  S   -0.025369   0.000000  -0.022867   0.000000  -0.029536
    7  H  1  X    0.000000   0.000000   0.000000   0.000000   0.000000
    8  H  1  Y    0.000000  -0.000105   0.000000   0.010741   0.000000
    9  H  1  Z   -0.002975   0.000000   0.003910   0.000000  -0.016602
   10  H  2  S    0.058142   0.049237   0.084188  -0.154678  -0.202253
   11  H  2  S   -0.069450  -0.033390  -0.063729  -0.006463  -0.080094
   12  H  2  X    0.000000   0.000000   0.000000   0.000000   0.000000
   13  H  2  Y   -0.001669  -0.001129   0.003536  -0.000752   0.002980
   14  H  2  Z   -0.008538  -0.007221  -0.009337   0.015584   0.017289
   15  H  2  S    0.016359  -0.021864   0.031463   0.015936   0.015817
   16  H  2  X    0.000000   0.000000   0.000000   0.000000   0.000000
   17  H  2  Y   -0.005496  -0.011664   0.012257  -0.016818   0.005747
   18  H  2  Z   -0.006247  -0.005269  -0.006225  -0.004629  -0.019396
   19  H  3  S    0.058142  -0.049237   0.084188   0.154678  -0.202253
   20  H  3  S   -0.069450   0.033389  -0.063729   0.006463  -0.080094
   21  H  3  X    0.000000   0.000000   0.000000   0.000000   0.000000
   22  H  3  Y    0.001669  -0.001129  -0.003536  -0.000752  -0.002980
   23  H  3  Z   -0.008538   0.007221  -0.009337  -0.015584   0.017289
   24  H  3  S    0.016359   0.021864   0.031463  -0.015936   0.015817
   25  H  3  X    0.000000   0.000000   0.000000   0.000000   0.000000
   26  H  3  Y    0.005496  -0.011664  -0.012257  -0.016818  -0.005747
   27  H  3  Z   -0.006247   0.005269  -0.006225   0.004629  -0.019396
   28  H  4  S    0.121106   0.130096  -0.092939   0.162716   0.209296
   29  H  4  S   -0.007089  -0.001787   0.001565  -0.014434  -0.015337
   30  H  4  X    0.000000   0.000000   0.000000   0.000000   0.000000
   31  H  4  Y    0.003905   0.004450  -0.001157  -0.002570   0.000673
   32  H  4  Z    0.017755   0.018581  -0.009888   0.015912   0.018538
   33  H  4  S   -0.005387  -0.005658  -0.004546   0.004525   0.007492
   34  H  4  X    0.000000   0.000000   0.000000   0.000000   0.000000
   35  H  4  Y    0.007231   0.005997   0.000153  -0.007024  -0.007776
   36  H  4  Z   -0.000382  -0.005850   0.009373  -0.002589  -0.003266
   37  H  5  S    0.121107  -0.130096  -0.092939  -0.162716   0.209296
   38  H  5  S   -0.007089   0.001787   0.001565   0.014434  -0.015337
   39  H  5  X    0.000000   0.000000   0.000000   0.000000   0.000000
   40  H  5  Y   -0.003905   0.004450   0.001157  -0.002570  -0.000673
   41  H  5  Z    0.017755  -0.018581  -0.009888  -0.015912   0.018538
   42  H  5  S   -0.005388   0.005658  -0.004546  -0.004525   0.007492
   43  H  5  X    0.000000   0.000000   0.000000   0.000000   0.000000
   44  H  5  Y   -0.007231   0.005997  -0.000153  -0.007024   0.007776
   45  H  5  Z   -0.000382   0.005850   0.009373   0.002589  -0.003266
   46  H  6  S    0.118130   0.130475  -0.116904   0.166122   0.007434
   47  H  6  S    0.022633   0.012650   0.017658  -0.034273  -0.002337
   48  H  6  X    0.000000   0.000000   0.000000   0.000000   0.000000
   49  H  6  Y    0.015496   0.016486  -0.010747   0.010044  -0.003620
   50  H  6  Z   -0.008835  -0.009949   0.008549  -0.012507  -0.004932
   51  H  6  S   -0.000734  -0.005894  -0.000381   0.003654  -0.004517
   52  H  6  X    0.000000   0.000000   0.000000   0.000000   0.000000
   53  H  6  Y   -0.011532  -0.008160  -0.003190   0.002596  -0.005722
   54  H  6  Z    0.010010   0.009739   0.002522  -0.004422  -0.004456
   55  H  7  S    0.118130  -0.130474  -0.116904  -0.166122   0.007434
   56  H  7  S    0.022633  -0.012650   0.017658   0.034273  -0.002337
   57  H  7  X    0.000000   0.000000   0.000000   0.000000   0.000000
   58  H  7  Y   -0.015496   0.016486   0.010747   0.010044   0.003620
   59  H  7  Z   -0.008835   0.009949   0.008549   0.012507  -0.004932
   60  H  7  S   -0.000734   0.005894  -0.000381  -0.003654  -0.004517
   61  H  7  X    0.000000   0.000000   0.000000   0.000000   0.000000
   62  H  7  Y    0.011532  -0.008160   0.003190   0.002596   0.005722
   63  H  7  Z    0.010010  -0.009739   0.002522   0.004422  -0.004456
   64  C  8  S    0.196906   0.000000   0.610737   0.000000   0.375124
   65  C  8  S    0.279975   0.000000  -0.534896   0.000000  -0.264151
   66  C  8  X    0.000000   0.000000   0.000000   0.000000   0.000000
   67  C  8  Y    0.000000   0.081155   0.000000  -0.274893   0.000000
   68  C  8  Z   -0.034494   0.000000  -0.119170   0.000000   0.118667
   69  C  8  X    0.000000   0.000000   0.000000   0.000000   0.000000
   70  C  8  Y    0.000000  -0.128649   0.000000  -0.088142   0.000000
   71  C  8  Z   -0.188489   0.000000   0.084028   0.000000  -0.052502
   72  C  8 XX   -0.005517   0.000000  -0.012648   0.000000  -0.006511
   73  C  8 YY    0.014017   0.000000   0.010530   0.000000  -0.000049
   74  C  8 ZZ   -0.008499   0.000000   0.002119   0.000000   0.006560
   75  C  8 XY    0.000000   0.000000   0.000000   0.000000   0.000000
   76  C  8 XZ    0.000000   0.000000   0.000000   0.000000   0.000000
   77  C  8 YZ    0.000000  -0.006008   0.000000   0.024794   0.000000
   78  C  8  S   -0.363570   0.000000  -0.446563   0.000000  -0.362296
   79  C  8  X    0.000000   0.000000   0.000000   0.000000   0.000000
   80  C  8  Y    0.000000   0.075599   0.000000  -0.108752   0.000000
   81  C  8  Z    0.067329   0.000000   0.076922   0.000000   0.059176
   82  C  8 XX    0.003698   0.000000   0.065703   0.000000   0.038187
   83  C  8 YY   -0.066660   0.000000  -0.123678   0.000000  -0.016244
   84  C  8 ZZ    0.062962   0.000000   0.057975   0.000000  -0.021943
   85  C  8 XY    0.000000   0.000000   0.000000   0.000000   0.000000
   86  C  8 XZ    0.000000   0.000000   0.000000   0.000000   0.000000
   87  C  8 YZ    0.000000   0.016252   0.000000   0.005894   0.000000
   88  C  9  S    0.348086   0.310876   0.326609  -0.503551  -0.262350
   89  C  9  S   -0.105850   0.067885   0.175314   0.374124   0.221218
   90  C  9  X    0.000000   0.000000   0.000000   0.000000   0.000000
   91  C  9  Y    0.101688   0.138827  -0.236995   0.031991  -0.191550
   92  C  9  Z    0.070153   0.065053   0.034074  -0.001316   0.217367
   93  C  9  X    0.000000   0.000000   0.000000   0.000000   0.000000
   94  C  9  Y    0.141210  -0.031369   0.003881  -0.068745   0.032154
   95  C  9  Z    0.011064   0.020132   0.078232   0.055409  -0.089401
   96  C  9 XX   -0.012691  -0.011632  -0.008097   0.010087   0.006267
   97  C  9 YY    0.018607   0.014898   0.006244  -0.000054  -0.002443
   98  C  9 ZZ   -0.005916  -0.003266   0.001853  -0.010033  -0.003824
   99  C  9 XY    0.000000   0.000000   0.000000   0.000000   0.000000
  100  C  9 XZ    0.000000   0.000000   0.000000   0.000000   0.000000
  101  C  9 YZ    0.010194   0.011493  -0.018647   0.004778  -0.010307
  102  C  9  S    0.228542  -0.120923   0.156777   0.239346   0.190021
  103  C  9  X    0.000000   0.000000   0.000000   0.000000   0.000000
  104  C  9  Y   -0.025738   0.050145  -0.049329  -0.019516  -0.036691
  105  C  9  Z    0.039603  -0.018209   0.046587   0.041708   0.029208
  106  C  9 XX   -0.003787  -0.002215  -0.011531  -0.036258  -0.016787
  107  C  9 YY   -0.055553  -0.019009  -0.036127   0.037768  -0.014170
  108  C  9 ZZ    0.059340   0.021224   0.047659  -0.001510   0.030957
  109  C  9 XY    0.000000   0.000000   0.000000   0.000000   0.000000
  110  C  9 XZ    0.000000   0.000000   0.000000   0.000000   0.000000
  111  C  9 YZ    0.024682  -0.017792   0.006605  -0.026811   0.007630
  112  C 10  S    0.348087  -0.310875   0.326609   0.503551  -0.262350
  113  C 10  S   -0.105850  -0.067885   0.175314  -0.374124   0.221218
  114  C 10  X    0.000000   0.000000   0.000000   0.000000   0.000000
  115  C 10  Y   -0.101688   0.138827   0.236995   0.031991   0.191550
  116  C 10  Z    0.070153  -0.065053   0.034074   0.001316   0.217367
  117  C 10  X    0.000000   0.000000   0.000000   0.000000   0.000000
  118  C 10  Y   -0.141210  -0.031369  -0.003881  -0.068745  -0.032154
  119  C 10  Z    0.011064  -0.020132   0.078232  -0.055409  -0.089401
  120  C 10 XX   -0.012691   0.011632  -0.008097  -0.010087   0.006267
  121  C 10 YY    0.018607  -0.014898   0.006244   0.000054  -0.002443
  122  C 10 ZZ   -0.005916   0.003266   0.001853   0.010033  -0.003824
  123  C 10 XY    0.000000   0.000000   0.000000   0.000000   0.000000
  124  C 10 XZ    0.000000   0.000000   0.000000   0.000000   0.000000
  125  C 10 YZ   -0.010194   0.011493   0.018647   0.004778   0.010307
  126  C 10  S    0.228542   0.120923   0.156777  -0.239346   0.190021
  127  C 10  X    0.000000   0.000000   0.000000   0.000000   0.000000
  128  C 10  Y    0.025738   0.050145   0.049329  -0.019516   0.036691
  129  C 10  Z    0.039603   0.018209   0.046587  -0.041708   0.029208
  130  C 10 XX   -0.003787   0.002215  -0.011531   0.036258  -0.016787
  131  C 10 YY   -0.055553   0.019009  -0.036127  -0.037768  -0.014170
  132  C 10 ZZ    0.059340  -0.021224   0.047659   0.001510   0.030957
  133  C 10 XY    0.000000   0.000000   0.000000   0.000000   0.000000
  134  C 10 XZ    0.000000   0.000000   0.000000   0.000000   0.000000
  135  C 10 YZ   -0.024682  -0.017792  -0.006605  -0.026811  -0.007630
  136  N 11  S    0.516105   0.548600  -0.274995   0.232620   0.085651
  137  N 11  S   -0.262162  -0.213800   0.069319  -0.076773  -0.016839
  138  N 11  X    0.000000   0.000000   0.000000   0.000000   0.000000
  139  N 11  Y   -0.071895  -0.068770  -0.081840   0.271186   0.148402
  140  N 11  Z   -0.028606  -0.030013  -0.008270   0.112603   0.276292
  141  N 11  X    0.000000   0.000000   0.000000   0.000000   0.000000
  142  N 11  Y    0.050821   0.031735   0.023907  -0.037649  -0.028029
  143  N 11  Z    0.010881   0.012155  -0.013918  -0.015876  -0.055011
  144  N 11 XX   -0.009450  -0.010193   0.004026  -0.002173  -0.000837
  145  N 11 YY    0.009299   0.009266   0.002506  -0.007766  -0.005637
  146  N 11 ZZ    0.000151   0.000927  -0.006532   0.009939   0.006474
  147  N 11 XY    0.000000   0.000000   0.000000   0.000000   0.000000
  148  N 11 XZ    0.000000   0.000000   0.000000   0.000000   0.000000
  149  N 11 YZ    0.004092   0.004911   0.001384  -0.010752  -0.008424
  150  N 11  S   -0.122457  -0.092892   0.033101  -0.070619  -0.039223
  151  N 11  X    0.000000   0.000000   0.000000   0.000000   0.000000
  152  N 11  Y    0.027429   0.012447   0.016666  -0.010497   0.011116
  153  N 11  Z   -0.005579   0.000384  -0.018844   0.002187  -0.028385
  154  N 11 XX    0.016577   0.019058  -0.008542   0.004206  -0.001397
  155  N 11 YY   -0.017849  -0.017667   0.000474   0.005030   0.010927
  156  N 11 ZZ    0.001273  -0.001392   0.008068  -0.009236  -0.009530
  157  N 11 XY    0.000000   0.000000   0.000000   0.000000   0.000000
  158  N 11 XZ    0.000000   0.000000   0.000000   0.000000   0.000000
  159  N 11 YZ   -0.003829  -0.004992  -0.000921   0.004494   0.001817
  160  N 12  S    0.516106  -0.548599  -0.274995  -0.232620   0.085651
  161  N 12  S   -0.262162   0.213800   0.069319   0.076773  -0.016839
  162  N 12  X    0.000000   0.000000   0.000000   0.000000   0.000000
  163  N 12  Y    0.071895  -0.068770   0.081840   0.271186  -0.148402
  164  N 12  Z   -0.028606   0.030013  -0.008270  -0.112603   0.276292
  165  N 12  X    0.000000   0.000000   0.000000   0.000000   0.000000
  166  N 12  Y   -0.050821   0.031735  -0.023907  -0.037649   0.028029
  167  N 12  Z    0.010881  -0.012155  -0.013918   0.015876  -0.055011
  168  N 12 XX   -0.009450   0.010193   0.004026   0.002173  -0.000837
  169  N 12 YY    0.009299  -0.009266   0.002506   0.007766  -0.005637
  170  N 12 ZZ    0.000151  -0.000927  -0.006532  -0.009939   0.006474
  171  N 12 XY    0.000000   0.000000   0.000000   0.000000   0.000000
  172  N 12 XZ    0.000000   0.000000   0.000000   0.000000   0.000000
  173  N 12 YZ   -0.004092   0.004911  -0.001384  -0.010752   0.008424
  174  N 12  S   -0.122457   0.092892   0.033101   0.070619  -0.039223
  175  N 12  X    0.000000   0.000000   0.000000   0.000000   0.000000
  176  N 12  Y   -0.027429   0.012447  -0.016666  -0.010497  -0.011116
  177  N 12  Z   -0.005579  -0.000384  -0.018844  -0.002187  -0.028385
  178  N 12 XX    0.016577  -0.019058  -0.008542  -0.004206  -0.001397
  179  N 12 YY   -0.017849   0.017667   0.000474  -0.005030   0.010927
  180  N 12 ZZ    0.001273   0.001392   0.008068   0.009236  -0.009530
  181  N 12 XY    0.000000   0.000000   0.000000   0.000000   0.000000
  182  N 12 XZ    0.000000   0.000000   0.000000   0.000000   0.000000
  183  N 12 YZ    0.003829  -0.004992   0.000921   0.004494  -0.001817

                      6          7          8          9         10
                   -0.9445    -0.9291    -0.8627    -0.8369    -0.7700
                     A          A          A          A          A   
    1  H  1  S    0.000000  -0.081763  -0.288404   0.000000   0.000000
    2  H  1  S    0.000000  -0.079596  -0.047597   0.000000   0.000000
    3  H  1  X    0.000000   0.000000   0.000000   0.000000   0.000000
    4  H  1  Y    0.004802   0.000000   0.000000   0.006719  -0.006994
    5  H  1  Z    0.000000  -0.006596  -0.022724   0.000000   0.000000
    6  H  1  S    0.000000  -0.017664  -0.030644   0.000000   0.000000
    7  H  1  X    0.000000   0.000000   0.000000   0.000000   0.000000
    8  H  1  Y    0.023162   0.000000   0.000000   0.042388  -0.031798
    9  H  1  Z    0.000000   0.017394   0.016489   0.000000   0.000000
   10  H  2  S    0.147482   0.119789   0.116903  -0.196988  -0.251511
   11  H  2  S    0.023327   0.051967   0.068432  -0.075691  -0.063511
   12  H  2  X    0.000000   0.000000   0.000000   0.000000   0.000000
   13  H  2  Y   -0.002023   0.005373   0.001413  -0.006089   0.004695
   14  H  2  Z   -0.011281  -0.007850  -0.007819   0.013665   0.014393
   15  H  2  S    0.001066   0.012931   0.011199   0.001256  -0.016407
   16  H  2  X    0.000000   0.000000   0.000000   0.000000   0.000000
   17  H  2  Y   -0.015635   0.014751   0.007364  -0.027502   0.022604
   18  H  2  Z    0.010082   0.015196   0.012472  -0.022030  -0.014331
   19  H  3  S   -0.147482   0.119789   0.116903   0.196988   0.251511
   20  H  3  S   -0.023327   0.051967   0.068432   0.075691   0.063511
   21  H  3  X    0.000000   0.000000   0.000000   0.000000   0.000000
   22  H  3  Y   -0.002023  -0.005373  -0.001413  -0.006089   0.004695
   23  H  3  Z    0.011281  -0.007850  -0.007819  -0.013665  -0.014393
   24  H  3  S   -0.001066   0.012931   0.011199  -0.001256   0.016407
   25  H  3  X    0.000000   0.000000   0.000000   0.000000   0.000000
   26  H  3  Y   -0.015635  -0.014751  -0.007364  -0.027502   0.022604
   27  H  3  Z   -0.010082   0.015196   0.012472   0.022030   0.014331
   28  H  4  S   -0.228105   0.021830   0.256316  -0.126934  -0.184927
   29  H  4  S    0.017674   0.002294   0.000141   0.001012  -0.012917
   30  H  4  X    0.000000   0.000000   0.000000   0.000000   0.000000
   31  H  4  Y   -0.007612  -0.009506   0.005374   0.005716  -0.005054
   32  H  4  Z   -0.017918   0.002720   0.018217  -0.008936  -0.010563
   33  H  4  S   -0.008772  -0.005038   0.004134   0.006044  -0.002411
   34  H  4  X    0.000000   0.000000   0.000000   0.000000   0.000000
   35  H  4  Y   -0.000825  -0.013175  -0.001909   0.018013   0.002005
   36  H  4  Z    0.003440  -0.000717  -0.010875   0.002866   0.010150
   37  H  5  S    0.228105   0.021831   0.256316   0.126934   0.184927
   38  H  5  S   -0.017674   0.002294   0.000141  -0.001012   0.012917
   39  H  5  X    0.000000   0.000000   0.000000   0.000000   0.000000
   40  H  5  Y   -0.007612   0.009506  -0.005374   0.005716  -0.005054
   41  H  5  Z    0.017918   0.002720   0.018217   0.008936   0.010563
   42  H  5  S    0.008772  -0.005038   0.004134  -0.006044   0.002411
   43  H  5  X    0.000000   0.000000   0.000000   0.000000   0.000000
   44  H  5  Y   -0.000825   0.013175   0.001909   0.018013   0.002005
   45  H  5  Z   -0.003440  -0.000717  -0.010875  -0.002866  -0.010150
   46  H  6  S    0.220958   0.264237  -0.204193  -0.119260   0.197949
   47  H  6  S   -0.029724  -0.010633   0.015557  -0.025577   0.018451
   48  H  6  X    0.000000   0.000000   0.000000   0.000000   0.000000
   49  H  6  Y    0.017592   0.014316  -0.015271  -0.002050   0.011448
   50  H  6  Z   -0.006422  -0.015359   0.003738   0.010757  -0.004458
   51  H  6  S    0.013470   0.008911  -0.002345  -0.001108  -0.009196
   52  H  6  X    0.000000   0.000000   0.000000   0.000000   0.000000
   53  H  6  Y    0.005421  -0.014503  -0.001084   0.024290  -0.011862
   54  H  6  Z    0.003771  -0.001860  -0.007726   0.004038   0.006788
   55  H  7  S   -0.220958   0.264237  -0.204193   0.119260  -0.197949
   56  H  7  S    0.029724  -0.010633   0.015557   0.025577  -0.018451
   57  H  7  X    0.000000   0.000000   0.000000   0.000000   0.000000
   58  H  7  Y    0.017592  -0.014316   0.015271  -0.002050   0.011448
   59  H  7  Z    0.006422  -0.015359   0.003738  -0.010757   0.004458
   60  H  7  S   -0.013470   0.008911  -0.002345   0.001108   0.009196
   61  H  7  X    0.000000   0.000000   0.000000   0.000000   0.000000
   62  H  7  Y    0.005421   0.014503   0.001084   0.024290  -0.011862
   63  H  7  Z   -0.003771  -0.001860  -0.007726  -0.004038  -0.006788
   64  C  8  S    0.000000   0.075706  -0.247388   0.000000   0.000000
   65  C  8  S    0.000000   0.050218   0.644980   0.000000   0.000000
   66  C  8  X    0.000000   0.000000   0.000000   0.000000   0.000000
   67  C  8  Y   -0.235814   0.000000   0.000000  -0.312672   0.431345
   68  C  8  Z    0.000000  -0.187425  -0.314307   0.000000   0.000000
   69  C  8  X    0.000000   0.000000   0.000000   0.000000   0.000000
   70  C  8  Y   -0.022956   0.000000   0.000000   0.011744  -0.370091
   71  C  8  Z    0.000000   0.106598   0.044751   0.000000   0.000000
   72  C  8 XX    0.000000  -0.000056   0.001933   0.000000   0.000000
   73  C  8 YY    0.000000  -0.008420   0.004516   0.000000   0.000000
   74  C  8 ZZ    0.000000   0.008476  -0.006449   0.000000   0.000000
   75  C  8 XY    0.000000   0.000000   0.000000   0.000000   0.000000
   76  C  8 XZ    0.000000   0.000000   0.000000   0.000000   0.000000
   77  C  8 YZ    0.011701   0.000000   0.000000   0.032690  -0.014246
   78  C  8  S    0.000000  -0.210611  -0.156424   0.000000   0.000000
   79  C  8  X    0.000000   0.000000   0.000000   0.000000   0.000000
   80  C  8  Y   -0.079376   0.000000   0.000000  -0.063054   0.049565
   81  C  8  Z    0.000000   0.037775   0.057076   0.000000   0.000000
   82  C  8 XX    0.000000   0.003245  -0.038586   0.000000   0.000000
   83  C  8 YY    0.000000  -0.036563   0.068991   0.000000   0.000000
   84  C  8 ZZ    0.000000   0.033319  -0.030406   0.000000   0.000000
   85  C  8 XY    0.000000   0.000000   0.000000   0.000000   0.000000
   86  C  8 XZ    0.000000   0.000000   0.000000   0.000000   0.000000
   87  C  8 YZ   -0.034176   0.000000   0.000000  -0.067472   0.107423
   88  C  9  S   -0.000535  -0.062510   0.100267  -0.155501   0.019596
   89  C  9  S    0.007549  -0.035676  -0.342841   0.202490   0.370959
   90  C  9  X    0.000000   0.000000   0.000000   0.000000   0.000000
   91  C  9  Y    0.129204  -0.294314  -0.106950   0.428695  -0.202643
   92  C  9  Z   -0.268575  -0.223313  -0.112273   0.194406   0.382407
   93  C  9  X    0.000000   0.000000   0.000000   0.000000   0.000000
   94  C  9  Y   -0.072413   0.062098   0.145174  -0.055129  -0.101526
   95  C  9  Z    0.138939   0.106212  -0.060672  -0.020339  -0.029565
   96  C  9 XX   -0.001533   0.002308  -0.000648  -0.001592   0.001576
   97  C  9 YY    0.004690  -0.006970  -0.010692   0.022898   0.014366
   98  C  9 ZZ   -0.003157   0.004663   0.011340  -0.021306  -0.015942
   99  C  9 XY    0.000000   0.000000   0.000000   0.000000   0.000000
  100  C  9 XZ    0.000000   0.000000   0.000000   0.000000   0.000000
  101  C  9 YZ   -0.001759  -0.019780   0.010680   0.024174  -0.020957
  102  C  9  S    0.085386   0.083041   0.083966   0.077883  -0.125453
  103  C  9  X    0.000000   0.000000   0.000000   0.000000   0.000000
  104  C  9  Y    0.010893  -0.016807  -0.021972   0.004765   0.052721
  105  C  9  Z    0.022942   0.028261   0.019284   0.009813  -0.031271
  106  C  9 XX   -0.006683   0.007204   0.022348  -0.038305  -0.010668
  107  C  9 YY   -0.001929   0.002556   0.026322   0.015876  -0.003650
  108  C  9 ZZ    0.008612  -0.009760  -0.048669   0.022430   0.014318
  109  C  9 XY    0.000000   0.000000   0.000000   0.000000   0.000000
  110  C  9 XZ    0.000000   0.000000   0.000000   0.000000   0.000000
  111  C  9 YZ   -0.040567   0.017521   0.042725  -0.025631   0.011931
  112  C 10  S    0.000535  -0.062510   0.100267   0.155501  -0.019596
  113  C 10  S   -0.007549  -0.035676  -0.342841  -0.202490  -0.370958
  114  C 10  X    0.000000   0.000000   0.000000   0.000000   0.000000
  115  C 10  Y    0.129204   0.294314   0.106950   0.428695  -0.202643
  116  C 10  Z    0.268575  -0.223313  -0.112273  -0.194406  -0.382407
  117  C 10  X    0.000000   0.000000   0.000000   0.000000   0.000000
  118  C 10  Y   -0.072413  -0.062098  -0.145174  -0.055129  -0.101526
  119  C 10  Z   -0.138939   0.106212  -0.060672   0.020339   0.029565
  120  C 10 XX    0.001533   0.002308  -0.000648   0.001592  -0.001576
  121  C 10 YY   -0.004690  -0.006970  -0.010692  -0.022898  -0.014366
  122  C 10 ZZ    0.003157   0.004663   0.011340   0.021306   0.015942
  123  C 10 XY    0.000000   0.000000   0.000000   0.000000   0.000000
  124  C 10 XZ    0.000000   0.000000   0.000000   0.000000   0.000000
  125  C 10 YZ   -0.001759   0.019780  -0.010680   0.024174  -0.020957
  126  C 10  S   -0.085386   0.083041   0.083966  -0.077883   0.125453
  127  C 10  X    0.000000   0.000000   0.000000   0.000000   0.000000
  128  C 10  Y    0.010893   0.016807   0.021972   0.004765   0.052721
  129  C 10  Z   -0.022942   0.028261   0.019284  -0.009813   0.031271
  130  C 10 XX    0.006683   0.007204   0.022348   0.038305   0.010668
  131  C 10 YY    0.001929   0.002556   0.026322  -0.015876   0.003650
  132  C 10 ZZ   -0.008612  -0.009760  -0.048669  -0.022430  -0.014318
  133  C 10 XY    0.000000   0.000000   0.000000   0.000000   0.000000
  134  C 10 XZ    0.000000   0.000000   0.000000   0.000000   0.000000
  135  C 10 YZ   -0.040567  -0.017521  -0.042725  -0.025631   0.011931
  136  N 11  S   -0.001477   0.025938  -0.003599   0.071635  -0.003491
  137  N 11  S    0.030801  -0.004273  -0.036585  -0.073975   0.000757
  138  N 11  X    0.000000   0.000000   0.000000   0.000000   0.000000
  139  N 11  Y    0.157083   0.447803  -0.083767  -0.366188   0.133433
  140  N 11  Z   -0.383267  -0.045157   0.392189  -0.165202  -0.257112
  141  N 11  X    0.000000   0.000000   0.000000   0.000000   0.000000
  142  N 11  Y   -0.017388  -0.087246  -0.003760   0.102472  -0.017262
  143  N 11  Z    0.051624  -0.010316  -0.037137   0.042770   0.009137
  144  N 11 XX    0.000187  -0.000090   0.000101   0.000041  -0.000230
  145  N 11 YY    0.003542  -0.006026  -0.010506   0.008280   0.013279
  146  N 11 ZZ   -0.003730   0.006116   0.010406  -0.008320  -0.013049
  147  N 11 XY    0.000000   0.000000   0.000000   0.000000   0.000000
  148  N 11 XZ    0.000000   0.000000   0.000000   0.000000   0.000000
  149  N 11 YZ   -0.003852  -0.014237   0.007929   0.009611  -0.014627
  150  N 11  S    0.000785  -0.003070  -0.002516  -0.004708  -0.029490
  151  N 11  X    0.000000   0.000000   0.000000   0.000000   0.000000
  152  N 11  Y   -0.028917  -0.018213   0.009886  -0.007758   0.006260
  153  N 11  Z    0.038856   0.005231  -0.022088   0.005824   0.005661
  154  N 11 XX    0.003543  -0.007171  -0.003844   0.011599  -0.001915
  155  N 11 YY   -0.010898   0.008767   0.013403  -0.016395  -0.001120
  156  N 11 ZZ    0.007356  -0.001596  -0.009559   0.004796   0.003034
  157  N 11 XY    0.000000   0.000000   0.000000   0.000000   0.000000
  158  N 11 XZ    0.000000   0.000000   0.000000   0.000000   0.000000
  159  N 11 YZ    0.004266   0.017634  -0.003271  -0.021511   0.010847
  160  N 12  S    0.001477   0.025938  -0.003599  -0.071635   0.003491
  161  N 12  S   -0.030801  -0.004273  -0.036585   0.073975  -0.000757
  162  N 12  X    0.000000   0.000000   0.000000   0.000000   0.000000
  163  N 12  Y    0.157083  -0.447803   0.083767  -0.366188   0.133433
  164  N 12  Z    0.383267  -0.045157   0.392189   0.165202   0.257112
  165  N 12  X    0.000000   0.000000   0.000000   0.000000   0.000000
  166  N 12  Y   -0.017388   0.087246   0.003760   0.102472  -0.017262
  167  N 12  Z   -0.051624  -0.010316  -0.037137  -0.042770  -0.009137
  168  N 12 XX   -0.000187  -0.000090   0.000101  -0.000041   0.000230
  169  N 12 YY   -0.003542  -0.006026  -0.010506  -0.008280  -0.013279
  170  N 12 ZZ    0.003730   0.006116   0.010406   0.008320   0.013049
  171  N 12 XY    0.000000   0.000000   0.000000   0.000000   0.000000
  172  N 12 XZ    0.000000   0.000000   0.000000   0.000000   0.000000
  173  N 12 YZ   -0.003852   0.014237  -0.007929   0.009611  -0.014627
  174  N 12  S   -0.000785  -0.003070  -0.002516   0.004708   0.029490
  175  N 12  X    0.000000   0.000000   0.000000   0.000000   0.000000
  176  N 12  Y   -0.028917   0.018213  -0.009886  -0.007758   0.006260
  177  N 12  Z   -0.038856   0.005231  -0.022088  -0.005824  -0.005661
  178  N 12 XX   -0.003543  -0.007171  -0.003844  -0.011599   0.001915
  179  N 12 YY    0.010898   0.008767   0.013403   0.016395   0.001120
  180  N 12 ZZ   -0.007356  -0.001596  -0.009559  -0.004796  -0.003034
  181  N 12 XY    0.000000   0.000000   0.000000   0.000000   0.000000
  182  N 12 XZ    0.000000   0.000000   0.000000   0.000000   0.000000
  183  N 12 YZ    0.004266  -0.017634   0.003271  -0.021511   0.010847

                     11         12         13         14         15
                   -0.7292    -0.7291    -0.6880    -0.5127    -0.0849
                     A          A          A          A          A   
    1  H  1  S    0.384256  -0.000001   0.000000   0.000000   0.000000
    2  H  1  S    0.055227   0.000000   0.000000   0.000000   0.000000
    3  H  1  X    0.000000  -0.008792   0.000000  -0.016835   0.000000
    4  H  1  Y    0.000000   0.000000   0.000000   0.000000   0.000000
    5  H  1  Z    0.017767   0.000000   0.000000   0.000000   0.000000
    6  H  1  S   -0.007143   0.000000   0.000000   0.000000   0.000000
    7  H  1  X    0.000000  -0.005788   0.000000   0.001087   0.000000
    8  H  1  Y    0.000000   0.000000   0.000000   0.000000   0.000000
    9  H  1  Z   -0.022954   0.000000   0.000000   0.000000   0.000000
   10  H  2  S    0.252222   0.000000   0.000000   0.000000   0.000000
   11  H  2  S    0.043661   0.000000   0.000000   0.000000   0.000000
   12  H  2  X    0.000000  -0.008871  -0.006627  -0.005308   0.018812
   13  H  2  Y   -0.000696   0.000000   0.000000   0.000000   0.000000
   14  H  2  Z   -0.009855   0.000000   0.000000   0.000000   0.000000
   15  H  2  S   -0.006128   0.000000   0.000000   0.000000   0.000000
   16  H  2  X    0.000000  -0.006008  -0.006320  -0.000377  -0.049669
   17  H  2  Y   -0.009185   0.000000   0.000000   0.000000   0.000000
   18  H  2  Z    0.016881   0.000000   0.000000   0.000000   0.000000
   19  H  3  S    0.252222   0.000000   0.000000   0.000000   0.000000
   20  H  3  S    0.043661   0.000000   0.000000   0.000000   0.000000
   21  H  3  X    0.000000  -0.008871   0.006627  -0.005308  -0.018812
   22  H  3  Y    0.000696   0.000000   0.000000   0.000000   0.000000
   23  H  3  Z   -0.009855   0.000000   0.000000   0.000000   0.000000
   24  H  3  S   -0.006128   0.000000   0.000000   0.000000   0.000000
   25  H  3  X    0.000000  -0.006008   0.006320  -0.000377   0.049669
   26  H  3  Y    0.009185   0.000000   0.000000   0.000000   0.000000
   27  H  3  Z    0.016881   0.000000   0.000000   0.000000   0.000000
   28  H  4  S    0.107690   0.000000   0.000000   0.000000   0.000000
   29  H  4  S   -0.016666   0.000000   0.000000   0.000000   0.000000
   30  H  4  X    0.000000  -0.013557  -0.017071   0.014051  -0.015830
   31  H  4  Y    0.002388   0.000000   0.000000   0.000000   0.000000
   32  H  4  Z    0.003722   0.000000   0.000000   0.000000   0.000000
   33  H  4  S    0.011509   0.000000   0.000000   0.000000   0.000000
   34  H  4  X    0.000000   0.002147   0.002061  -0.005014   0.023288
   35  H  4  Y    0.001397   0.000000   0.000000   0.000000   0.000000
   36  H  4  Z    0.006018   0.000000   0.000000   0.000000   0.000000
   37  H  5  S    0.107690   0.000000   0.000000   0.000000   0.000000
   38  H  5  S   -0.016666   0.000000   0.000000   0.000000   0.000000
   39  H  5  X    0.000000  -0.013557   0.017071   0.014051   0.015830
   40  H  5  Y   -0.002388   0.000000   0.000000   0.000000   0.000000
   41  H  5  Z    0.003722   0.000000   0.000000   0.000000   0.000000
   42  H  5  S    0.011509   0.000000   0.000000   0.000000   0.000000
   43  H  5  X    0.000000   0.002147  -0.002061  -0.005014  -0.023288
   44  H  5  Y   -0.001397   0.000000   0.000000   0.000000   0.000000
   45  H  5  Z    0.006018   0.000000   0.000000   0.000000   0.000000
   46  H  6  S   -0.064993   0.000000   0.000000   0.000000   0.000000
   47  H  6  S    0.012601   0.000000   0.000000   0.000000   0.000000
   48  H  6  X    0.000000  -0.013416  -0.017541   0.015045  -0.014989
   49  H  6  Y   -0.005010   0.000000   0.000000   0.000000   0.000000
   50  H  6  Z   -0.001188   0.000000   0.000000   0.000000   0.000000
   51  H  6  S   -0.001003   0.000000   0.000000   0.000000   0.000000
   52  H  6  X    0.000000   0.001763   0.003078  -0.006781   0.023742
   53  H  6  Y   -0.006752   0.000000   0.000000   0.000000   0.000000
   54  H  6  Z    0.002560   0.000000   0.000000   0.000000   0.000000
   55  H  7  S   -0.064993   0.000000   0.000000   0.000000   0.000000
   56  H  7  S    0.012601   0.000000   0.000000   0.000000   0.000000
   57  H  7  X    0.000000  -0.013416   0.017541   0.015045   0.014989
   58  H  7  Y    0.005010   0.000000   0.000000   0.000000   0.000000
   59  H  7  Z   -0.001188   0.000000   0.000000   0.000000   0.000000
   60  H  7  S   -0.001003   0.000000   0.000000   0.000000   0.000000
   61  H  7  X    0.000000   0.001763  -0.003078  -0.006781  -0.023742
   62  H  7  Y    0.006752   0.000000   0.000000   0.000000   0.000000
   63  H  7  Z    0.002560   0.000000   0.000000   0.000000   0.000000
   64  C  8  S   -0.029448   0.000000   0.000000   0.000000   0.000000
   65  C  8  S    0.178290   0.000000   0.000000   0.000000   0.000000
   66  C  8  X    0.000000   0.312952   0.000000   0.592451   0.000000
   67  C  8  Y    0.000000   0.000000   0.000000   0.000000   0.000000
   68  C  8  Z    0.518519  -0.000001   0.000000   0.000000   0.000000
   69  C  8  X    0.000000  -0.024326   0.000000   0.007935   0.000000
   70  C  8  Y    0.000000   0.000000   0.000000   0.000000   0.000000
   71  C  8  Z   -0.276672   0.000000   0.000000   0.000000   0.000000
   72  C  8 XX   -0.002169   0.000000   0.000000   0.000000   0.000000
   73  C  8 YY   -0.032436   0.000000   0.000000   0.000000   0.000000
   74  C  8 ZZ    0.034605   0.000000   0.000000   0.000000   0.000000
   75  C  8 XY    0.000000   0.000000   0.016209   0.000000  -0.042998
   76  C  8 XZ    0.000000  -0.016772   0.000000  -0.015392   0.000000
   77  C  8 YZ    0.000000   0.000000   0.000000   0.000000   0.000000
   78  C  8  S    0.104852   0.000000   0.000000   0.000000   0.000000
   79  C  8  X    0.000000  -0.016133   0.000000   0.007967   0.000000
   80  C  8  Y    0.000000   0.000000   0.000000   0.000000   0.000000
   81  C  8  Z   -0.024986   0.000000   0.000000   0.000000   0.000000
   82  C  8 XX   -0.019180   0.000000   0.000000   0.000000   0.000000
   83  C  8 YY   -0.032104   0.000000   0.000000   0.000000   0.000000
   84  C  8 ZZ    0.051284   0.000000   0.000000   0.000000   0.000000
   85  C  8 XY    0.000000   0.000000   0.021095   0.000000  -0.045226
   86  C  8 XZ    0.000000   0.005429   0.000000   0.002420   0.000000
   87  C  8 YZ    0.000000   0.000000   0.000000   0.000000   0.000000
   88  C  9  S   -0.046904   0.000000   0.000000   0.000000   0.000000
   89  C  9  S   -0.141199   0.000000   0.000000   0.000000   0.000000
   90  C  9  X    0.000001   0.348705   0.284244   0.174146  -0.550118
   91  C  9  Y    0.122678   0.000000   0.000000   0.000000   0.000000
   92  C  9  Z   -0.344922   0.000001   0.000000   0.000000   0.000000
   93  C  9  X    0.000000  -0.045959  -0.047975   0.004561  -0.137747
   94  C  9  Y    0.044729   0.000000   0.000000   0.000000   0.000000
   95  C  9  Z    0.115447   0.000000   0.000000   0.000000   0.000000
   96  C  9 XX   -0.000073   0.000000   0.000000   0.000000   0.000000
   97  C  9 YY   -0.034468   0.000000   0.000000   0.000000   0.000000
   98  C  9 ZZ    0.034540   0.000000   0.000000   0.000000   0.000000
   99  C  9 XY    0.000000   0.006880   0.024600  -0.045626   0.014100
  100  C  9 XZ    0.000000   0.014780   0.011180   0.004845   0.005332
  101  C  9 YZ    0.000156   0.000000   0.000000   0.000000   0.000000
  102  C  9  S   -0.070139   0.000000   0.000000   0.000000   0.000000
  103  C  9  X    0.000000  -0.008372  -0.006777   0.005461  -0.451601
  104  C  9  Y   -0.011047   0.000000   0.000000   0.000000   0.000000
  105  C  9  Z   -0.001313   0.000000   0.000000   0.000000   0.000000
  106  C  9 XX    0.005003   0.000000   0.000000   0.000000   0.000000
  107  C  9 YY   -0.046250   0.000000   0.000000   0.000000   0.000000
  108  C  9 ZZ    0.041248   0.000000   0.000000   0.000000   0.000000
  109  C  9 XY    0.000000  -0.010662   0.006021  -0.039743  -0.016309
  110  C  9 XZ    0.000000  -0.007146  -0.011961  -0.003307  -0.006562
  111  C  9 YZ   -0.006023   0.000000   0.000000   0.000000   0.000000
  112  C 10  S   -0.046904   0.000000   0.000000   0.000000   0.000000
  113  C 10  S   -0.141199   0.000000   0.000000   0.000000   0.000000
  114  C 10  X    0.000001   0.348705  -0.284244   0.174146   0.550118
  115  C 10  Y   -0.122678   0.000000   0.000000   0.000000   0.000000
  116  C 10  Z   -0.344922   0.000001   0.000000   0.000000   0.000000
[...]
           NUCLEAR REPULSION ENERGY =      91.8959155152
                                      ------------------
                       TOTAL ENERGY =     -39.9016921958

 ELECTRON-ELECTRON POTENTIAL ENERGY =     105.3203273215
  NUCLEUS-ELECTRON POTENTIAL ENERGY =    -268.0835864919
   NUCLEUS-NUCLEUS POTENTIAL ENERGY =      91.8959155152
                                      ------------------
             TOTAL POTENTIAL ENERGY =     -70.8673436552
               TOTAL KINETIC ENERGY =      30.9656514594
                 VIRIAL RATIO (V/T) =       2.2885791293

  ...... PI ENERGY ANALYSIS ......

 ENERGY ANALYSIS:
            FOCK ENERGY=    -26.4772811538
          BARE H ENERGY=   -237.1179350325
     ELECTRONIC ENERGY =   -131.7976080932
         KINETIC ENERGY=     30.9656514594
          N-N REPULSION=     91.8959155152
           TOTAL ENERGY=    -39.9016925779
        SIGMA PART(1+2)=   -105.3098949984
               (K,V1,2)=     23.0310850082   -211.0330010663     82.6920210597
           PI PART(1+2)=    -26.4877130947
               (K,V1,2)=      7.9345664512    -57.0505854257     22.6283058797
  SIGMA SKELETON, ERROR=    -13.4139794832      0.0000000000
             MIXED PART=-7.48702E-17 0.00000E+00 0.00000E+00-7.48702E-17
 ...... END OF PI ENERGY ANALYSIS ......

          ---------------------------------------
          MULLIKEN AND LOWDIN POPULATION ANALYSES
          ---------------------------------------

     MULLIKEN ATOMIC POPULATION IN EACH MOLECULAR ORBITAL

                      1          2          3          4          5

                  2.000000   2.000000   2.000000   2.000000   2.000000

    1            -0.005931   0.000128   0.058654  -0.002472   0.214627
    2            -0.002328  -0.009278   0.011849   0.104759   0.209203
    3            -0.002328  -0.009278   0.011849   0.104759   0.209203
    4             0.083312   0.104347   0.034277   0.079553   0.130200
    5             0.083313   0.104347   0.034277   0.079553   0.130200
    6             0.120082   0.123056   0.046002   0.075329  -0.001400
    7             0.120082   0.123055   0.046002   0.075329  -0.001400
    8             0.012369   0.004606  -0.191248   0.400519   0.143791
    9             0.597911   0.401581   0.845714   0.231357   0.250130
   10             0.597912   0.401580   0.845714   0.231357   0.250130
   11             0.197802   0.377928   0.128455   0.309979   0.232658
   12             0.197803   0.377927   0.128455   0.309979   0.232658

                      6          7          8          9         10

                  2.000000   2.000000   2.000000   2.000000   2.000000

    1            -0.013038   0.043835   0.299476  -0.008275  -0.005205
    2             0.074998   0.076073   0.062899   0.151339   0.187723
    3             0.074998   0.076073   0.062899   0.151339   0.187723
    4             0.134982  -0.001360   0.155224   0.041401   0.076951
    5             0.134982  -0.001360   0.155224   0.041401   0.076951
    6             0.121258   0.191783   0.094498   0.046812   0.087461
    7             0.121259   0.191783   0.094498   0.046812   0.087461
    8             0.203133   0.054978   0.195753   0.239340   0.267490
    9             0.162701   0.251380   0.084668   0.347614   0.348983
   10             0.162701   0.251380   0.084668   0.347614   0.348983
   11             0.411014   0.432717   0.355096   0.297301   0.167740
   12             0.411014   0.432717   0.355096   0.297301   0.167740

                     11         12         13         14

                  2.000000   2.000000   2.000000   2.000000

    1             0.462612  -0.000223   0.000000   0.010578
    2             0.194030  -0.000213  -0.000745   0.001075
    3             0.194030  -0.000213  -0.000745   0.001075
    4             0.032055   0.007758   0.011114   0.006997
    5             0.032055   0.007758   0.011114   0.006997
    6             0.007337   0.007213   0.012193   0.009422
    7             0.007337   0.007213   0.012193   0.009422
    8             0.567321   0.294776   0.026279   0.870088
    9             0.196517   0.339642   0.212835   0.174979
   10             0.196517   0.339642   0.212835   0.174979
   11             0.055093   0.498323   0.751464   0.367194
   12             0.055093   0.498323   0.751464   0.367194

               ----- POPULATIONS IN EACH AO -----
                             MULLIKEN      LOWDIN
              1  H  1  S      0.94738     0.48458
              2  H  1  S      0.14697     0.17900
              3  H  1  X      0.01322     0.03220
              4  H  1  Y      0.00630     0.01910
              5  H  1  Z      0.02733     0.04426
              6  H  1  S     -0.04399     0.01750
              7  H  1  X     -0.00286     0.04322
              8  H  1  Y     -0.03516     0.02399
              9  H  1  Z     -0.00442     0.05304
             10  H  2  S      0.93655     0.48580
             11  H  2  S      0.11574     0.16983
             12  H  2  X      0.00687     0.01659
             13  H  2  Y      0.00528     0.01627
             14  H  2  Z      0.02618     0.04899
             15  H  2  S      0.02039     0.01661
             16  H  2  X     -0.00675     0.02536
             17  H  2  Y     -0.02800     0.02574
             18  H  2  Z     -0.01487     0.05335
             19  H  3  S      0.93655     0.48580
             20  H  3  S      0.11574     0.16983
             21  H  3  X      0.00687     0.01659
             22  H  3  Y      0.00528     0.01627
             23  H  3  Z      0.02618     0.04899
             24  H  3  S      0.02039     0.01661
             25  H  3  X     -0.00675     0.02536
             26  H  3  Y     -0.02800     0.02574
             27  H  3  Z     -0.01487     0.05335
             28  H  4  S      0.87572     0.40481
             29  H  4  S     -0.03204     0.12935
             30  H  4  X      0.02131     0.04653
             31  H  4  Y      0.01021     0.02695
             32  H  4  Z      0.03477     0.06189
             33  H  4  S     -0.00279     0.01362
             34  H  4  X      0.00456     0.04595
             35  H  4  Y     -0.01778     0.02780
             36  H  4  Z      0.00285     0.06396
             37  H  5  S      0.87572     0.40481
             38  H  5  S     -0.03204     0.12935
             39  H  5  X      0.02131     0.04653
             40  H  5  Y      0.01021     0.02695
             41  H  5  Z      0.03477     0.06189
             42  H  5  S     -0.00279     0.01362
             43  H  5  X      0.00456     0.04595
             44  H  5  Y     -0.01778     0.02780
             45  H  5  Z      0.00285     0.06396
             46  H  6  S      0.87202     0.40066
             47  H  6  S     -0.00971     0.12984
             48  H  6  X      0.02254     0.04840
             49  H  6  Y      0.02726     0.04807
             50  H  6  Z      0.01753     0.03912
             51  H  6  S      0.00097     0.01284
             52  H  6  X      0.00629     0.04890
             53  H  6  Y      0.00712     0.04873
             54  H  6  Z     -0.00296     0.04061
             55  H  7  S      0.87202     0.40066
             56  H  7  S     -0.00971     0.12984
             57  H  7  X      0.02254     0.04840
             58  H  7  Y      0.02726     0.04807
             59  H  7  Z      0.01753     0.03912
             60  H  7  S      0.00097     0.01284
             61  H  7  X      0.00629     0.04890
             62  H  7  Y      0.00712     0.04873
             63  H  7  Z     -0.00296     0.04061
             64  C  8  S      1.46833     0.31041
             65  C  8  S     -0.77114     0.11232
             66  C  8  X      1.18886     0.73664
             67  C  8  Y      1.10500     0.70688
             68  C  8  Z      1.18134     0.77051
             69  C  8  X     -0.01801     0.19652
             70  C  8  Y     -0.17733     0.15832
             71  C  8  Z     -0.35476     0.19837
             72  C  8 XX      0.02219     0.04430
             73  C  8 YY      0.01172     0.16541
             74  C  8 ZZ      0.00546     0.14703
             75  C  8 XY      0.00625     0.00962
             76  C  8 XZ      0.02816     0.00815
             77  C  8 YZ      0.00000     0.06355
             78  C  8  S     -0.80958     0.03754
             79  C  8  X     -0.00968     0.01591
             80  C  8  Y      0.12890     0.03169
             81  C  8  Z     -0.02528     0.02242
             82  C  8 XX      0.05960     0.00032
             83  C  8 YY      0.00053     0.08395
             84  C  8 ZZ      0.02082     0.09539
             85  C  8 XY     -0.00256     0.04572
             86  C  8 XZ      0.03036     0.01571
             87  C  8 YZ      0.00000     0.11200
             88  C  9  S      1.52155     0.31508
             89  C  9  S     -0.34843     0.10897
             90  C  9  X      0.72772     0.42179
             91  C  9  Y      1.13076     0.69522
             92  C  9  Z      1.25719     0.79911
             93  C  9  X     -0.08966     0.12573
             94  C  9  Y     -0.05503     0.14895
             95  C  9  Z     -0.27026     0.17926
             96  C  9 XX      0.03145     0.04243
             97  C  9 YY      0.02006     0.17748
             98  C  9 ZZ      0.04229     0.15377
             99  C  9 XY      0.00537     0.07116
            100  C  9 XZ      0.03134     0.00827
            101  C  9 YZ      0.00000     0.06460
            102  C  9  S      0.23490     0.03671
            103  C  9  X     -0.00685     0.01415
            104  C  9  Y      0.08207     0.03100
            105  C  9  Z      0.01558     0.01861
            106  C  9 XX      0.00648     0.00067
            107  C  9 YY      0.01318     0.12163
            108  C  9 ZZ      0.05426     0.09007
            109  C  9 XY     -0.00568     0.15274
            110  C  9 XZ      0.04773     0.01398
            111  C  9 YZ      0.00000     0.11625
            112  C 10  S      1.52155     0.31508
            113  C 10  S     -0.34843     0.10897
            114  C 10  X      0.72772     0.42179
            115  C 10  Y      1.13076     0.69522
            116  C 10  Z      1.25719     0.79911
            117  C 10  X     -0.08966     0.12573
            118  C 10  Y     -0.05503     0.14895
            119  C 10  Z     -0.27026     0.17926
            120  C 10 XX      0.03145     0.04243
            121  C 10 YY      0.02006     0.17748
            122  C 10 ZZ      0.04229     0.15377
            123  C 10 XY      0.00537     0.07116
            124  C 10 XZ      0.03134     0.00827
            125  C 10 YZ      0.00000     0.06460
            126  C 10  S      0.23490     0.03671
            127  C 10  X     -0.00685     0.01415
            128  C 10  Y      0.08207     0.03100
            129  C 10  Z      0.01558     0.01861
            130  C 10 XX      0.00648     0.00067
            131  C 10 YY      0.01318     0.12163
            132  C 10 ZZ      0.05426     0.09007
            133  C 10 XY     -0.00568     0.15274
            134  C 10 XZ      0.04773     0.01398
            135  C 10 YZ      0.00000     0.11625
            136  N 11  S      1.63061     0.42213
            137  N 11  S     -0.63869     0.15194
            138  N 11  X      1.52713     1.04851
            139  N 11  Y      1.29315     0.88714
            140  N 11  Z      1.33316     0.92097
            141  N 11  X      0.07672     0.29820
            142  N 11  Y     -0.22761     0.27386
            143  N 11  Z     -0.15619     0.29668
            144  N 11 XX      0.01004     0.08056
            145  N 11 YY      0.00614     0.15753
            146  N 11 ZZ      0.00340     0.14630
            147  N 11 XY      0.00062     0.00447
            148  N 11 XZ      0.01262     0.00087
            149  N 11 YZ      0.00000     0.02766
            150  N 11  S     -0.20291     0.04191
            151  N 11  X     -0.00177     0.02179
            152  N 11  Y     -0.03930     0.03471
            153  N 11  Z     -0.04440     0.02379
            154  N 11 XX     -0.00346     0.00012
            155  N 11 YY     -0.00247     0.07342
            156  N 11 ZZ      0.00967     0.05957
            157  N 11 XY      0.00121     0.02991
            158  N 11 XZ     -0.00491     0.00484
            159  N 11 YZ      0.00000     0.09614
            160  N 12  S      1.63061     0.42213
            161  N 12  S     -0.63869     0.15194
            162  N 12  X      1.52713     1.04851
            163  N 12  Y      1.29315     0.88714
            164  N 12  Z      1.33316     0.92097
            165  N 12  X      0.07672     0.29820
            166  N 12  Y     -0.22761     0.27386
            167  N 12  Z     -0.15619     0.29668
            168  N 12 XX      0.01004     0.08056
            169  N 12 YY      0.00614     0.15753
            170  N 12 ZZ      0.00340     0.14630
            171  N 12 XY      0.00062     0.00447
            172  N 12 XZ      0.01262     0.00087
            173  N 12 YZ      0.00000     0.02766
            174  N 12  S     -0.20291     0.04191
            175  N 12  X     -0.00177     0.02179
            176  N 12  Y     -0.03930     0.03471
            177  N 12  Z     -0.04440     0.02379
            178  N 12 XX     -0.00346     0.00012
            179  N 12 YY     -0.00247     0.07342
            180  N 12 ZZ      0.00967     0.05957
            181  N 12 XY      0.00121     0.02991
            182  N 12 XZ     -0.00491     0.00484
            183  N 12 YZ      0.00000     0.09614

          ----- MULLIKEN ATOMIC OVERLAP POPULATIONS -----
          (OFF-DIAGONAL ELEMENTS NEED TO BE MULTIPLIED BY 2)

             1           2           3           4           5

    1    0.8329786
    2   -0.0103781   0.9172300
    3   -0.0103781  -0.0026131   0.9172300
    4   -0.0072879   0.0094939   0.0004407   0.5662108
    5   -0.0072879   0.0004407   0.0094939   0.0003567   0.5662108
    6   -0.0016930   0.0024921   0.0004462  -0.0267581   0.0000042
    7   -0.0016930   0.0004462   0.0024921   0.0000042  -0.0267581
    8    0.1452968   0.1960168   0.1960169   0.0273326   0.0273326
    9    0.0563129  -0.0255086  -0.0156191  -0.0329707   0.0016070
   10    0.0563129  -0.0156191  -0.0255087   0.0016070  -0.0329707
   11    0.0012915  -0.0098545  -0.0007613   0.3582561   0.0001257
   12    0.0012915  -0.0007613  -0.0098545   0.0001257   0.3582561

             6           7           8           9          10

    6    0.5710585
    7    0.0001009   0.5710585
    8   -0.0331780  -0.0331780   3.7543529
    9    0.0319406   0.0065278  -0.6661692   4.1966723
   10    0.0065278   0.0319406  -0.6661692   0.5712518   4.1966723
   11    0.3901406  -0.0000347   0.0707696   0.3380475  -0.0160802
   12   -0.0000347   0.3901406   0.0707696  -0.0160802   0.3380475

            11          12

   11    3.4475214
   12    0.0033430   3.4475215

          TOTAL MULLIKEN AND LOWDIN ATOMIC POPULATIONS
       ATOM         MULL.POP.    CHARGE          LOW.POP.     CHARGE
    1 H             1.054766   -0.054766         0.896892    0.103108
    2 H             1.061385   -0.061385         0.858534    0.141466
    3 H             1.061385   -0.061385         0.858534    0.141466
    4 H             0.896811    0.103189         0.820856    0.179144
    5 H             0.896811    0.103189         0.820856    0.179144
    6 H             0.941047    0.058953         0.817175    0.182825
    7 H             0.941047    0.058953         0.817175    0.182825
    8 C             3.089193    0.910807         4.088688   -0.088688
    9 C             4.446012   -0.446012         3.907621    0.092379
   10 C             4.446012   -0.446012         3.907621    0.092379
   11 N             4.582765    0.417235         5.103025   -0.103025
   12 N             4.582765    0.417235         5.103025   -0.103025

          MULLIKEN SPHERICAL HARMONIC POPULATIONS
       ATOM           S       P       D      F      G      H      I    TOTAL
    1 H             1.05    0.00    0.00   0.00   0.00   0.00   0.00    1.05
    2 H             1.07   -0.01    0.00   0.00   0.00   0.00   0.00    1.06
    3 H             1.07   -0.01    0.00   0.00   0.00   0.00   0.00    1.06
    4 H             0.84    0.06    0.00   0.00   0.00   0.00   0.00    0.90
    5 H             0.84    0.06    0.00   0.00   0.00   0.00   0.00    0.90
    6 H             0.86    0.08    0.00   0.00   0.00   0.00   0.00    0.94
    7 H             0.86    0.08    0.00   0.00   0.00   0.00   0.00    0.94
    8 C            -0.11    3.02    0.18   0.00   0.00   0.00   0.00    3.09
    9 C             1.41    2.79    0.25   0.00   0.00   0.00   0.00    4.45
   10 C             1.41    2.79    0.25   0.00   0.00   0.00   0.00    4.45
   11 N             0.79    3.76    0.03   0.00   0.00   0.00   0.00    4.58
   12 N             0.79    3.76    0.03   0.00   0.00   0.00   0.00    4.58

          -------------------------------
          BOND ORDER AND VALENCE ANALYSIS     BOND ORDER THRESHOLD=0.050
          -------------------------------

                   BOND                       BOND                       BOND
  ATOM PAIR DIST  ORDER      ATOM PAIR DIST  ORDER      ATOM PAIR DIST  ORDER
    1   8  1.084  0.457        1   9  2.147  0.225        1  10  2.147  0.225
    2   8  2.133  0.092        2   9  1.086  0.797        3   8  2.133  0.092
    3  10  1.086  0.797        4   9  2.033  0.074        4  11  1.008  0.930
    5  10  2.033  0.074        5  12  1.008  0.930        6   9  2.024  0.087
    6  11  1.006  0.977        7  10  2.024  0.087        7  12  1.006  0.977
    8   9  1.381  1.900        8  10  1.381  1.900        9  10  2.376  0.832
    9  11  1.312  1.521       10  12  1.312  1.521

                       TOTAL       BONDED        FREE
      ATOM            VALENCE     VALENCE     VALENCE
    1 H                 0.876       0.876       0.000
    2 H                 0.916       0.916       0.000
    3 H                 0.916       0.916       0.000
    4 H                 1.022       1.022       0.000
    5 H                 1.022       1.022       0.000
    6 H                 1.089       1.089       0.000
    7 H                 1.089       1.089       0.000
    8 C                 4.482       4.482       0.000
    9 C                 5.470       5.470       0.000
   10 C                 5.470       5.470       0.000
   11 N                 3.453       3.453       0.000
   12 N                 3.453       3.453       0.000

          ---------------------
          ELECTROSTATIC MOMENTS
          ---------------------

 POINT   1           X           Y           Z (BOHR)    CHARGE
                 0.000000    0.000000   -0.000508        1.00 (A.U.)
         DX          DY          DZ         /D/  (DEBYE)
     0.000000    0.000000   -0.413855    0.413855
 ...... END OF PROPERTY EVALUATION ......
 STEP CPU TIME =     0.04 TOTAL CPU TIME =       40.0 (    0.7 MIN)
 TOTAL WALL CLOCK TIME=       40.0 SECONDS, CPU UTILIZATION IS  99.97%
                440000  WORDS OF DYNAMIC MEMORY USED
 EXECUTION OF GAMESS TERMINATED NORMALLY Tue Sep 26 14:52:26 2017
 DDI: 1128 bytes (0.0 MB / 0 MWords) used by master data server.

 ----------------------------------------
 CPU timing information for all processes
 ========================================
 0: 38.022376 + 1.984124 = 40.006500
 ----------------------------------------
 ddikick.x: exited gracefully.
----- accounting info -----
Tue Sep 26 14:52:29 CEST 2017
Files used on the master node lpqlx139 were:
-rw-r--r-- 1 scemama scemama    528310 Sep 26 14:52 /dev/shm//gamess/C3.dat
-rw-r--r-- 1 scemama scemama      1242 Sep 26 14:51 /dev/shm//gamess/C3.F05
-rw-r--r-- 1 scemama scemama 873257616 Sep 26 14:52 /dev/shm//gamess/C3.F08
-rw-r--r-- 1 scemama scemama  13873280 Sep 26 14:52 /dev/shm//gamess/C3.F10
0.092u 0.068s 0:43.72 0.3%	0+0k 0+0io 0pf+0w
