----- GAMESS execution script -----
This job is running on host lpqlx139
under operating system Linux at Tue Sep 26 15:05:22 CEST 2017
Available scratch disk space (Kbyte units) at beginning of the job is
Filesystem     1K-blocks    Used Available Use% Mounted on
tmpfs            6592140 2721476   3870664  42% /run/shm

 Distributed Data Interface kickoff program.
 Initiating 8 compute processes on 1 nodes to run the following command:
 /usr/local/gamess/gamess.01.x C5 

          ******************************************************
          *         GAMESS VERSION = 22 FEB 2006 (R5)          *
          *             FROM IOWA STATE UNIVERSITY             *
          * M.W.SCHMIDT, K.K.BALDRIDGE, J.A.BOATZ, S.T.ELBERT, *
          *   M.S.GORDON, J.H.JENSEN, S.KOSEKI, N.MATSUNAGA,   *
          *          K.A.NGUYEN, S.J.SU, T.L.WINDUS,           *
          *       TOGETHER WITH M.DUPUIS, J.A.MONTGOMERY       *
          *         J.COMPUT.CHEM.  14, 1347-1363(1993)        *
          ***************** AMD 64 BIT VERSION *****************

     SINCE 1993, STUDENTS AND POSTDOCS WORKING AT IOWA STATE UNIVERSITY
     AND ALSO IN THEIR VARIOUS JOBS AFTER LEAVING ISU HAVE MADE IMPORTANT
     CONTRIBUTIONS TO THE CODE:
     IVANA ADAMOVIC, CHRISTINE AIKENS, YURI ALEXEEV, POOJA ARORA, ROB BELL,
     PRADIPTA BANDYOPADHYAY, BRETT BODE, GALINA CHABAN, WEI CHEN,
     CHEOL HO CHOI, PAUL DAY, TIM DUDLEY, DMITRI FEDOROV, GRAHAM FLETCHER,
     MARK FREITAG, KURT GLAESEMANN, GRANT MERRILL, TAKESHI NAGATA,
     HEATHER NETZLOFF, BOSILJKA NJEGIC, RYAN OLSON, MIKE PAK, JIM SHOEMAKER,
     LYUDMILA SLIPCHENKO, JIE SONG, TETSUYA TAKETSUGU, SIMON WEBB.

     ADDITIONAL CODE HAS BEEN PROVIDED BY COLLABORATORS IN OTHER GROUPS:
     IOWA STATE UNIVERSITY: JOE IVANIC, KLAUS RUEDENBERG
     UNIVERSITY OF TOKYO: KIMIHIKO HIRAO, HARUYUKI NAKANO, TAKAHITO
          NAKAJIMA, TAKAO TSUNEDA, MUNEAKI KAMIYA, SUSUMU YANAGISAWA,
          KIYOSHI YAGI
     UNIVERSITY OF SOUTHERN DENMARK: FRANK JENSEN
     UNIVERSITY OF IOWA: VISVALDAS KAIRYS, HUI LI
     NATIONAL INST. OF STANDARDS AND TECHNOLOGY: WALT STEVENS, DAVID GARMER
     UNIVERSITY OF PISA: BENEDETTA MENNUCCI, JACOPO TOMASI
     UNIVERSITY OF MEMPHIS: HENRY KURTZ, PRAKASHAN KORAMBATH
     UNIVERSITY OF ALBERTA: MARIUSZ KLOBUKOWSKI
     UNIVERSITY OF NEW ENGLAND: MARK SPACKMAN
     MIE UNIVERSITY: HIROAKI UMEDA
     MICHIGAN STATE UNIVERSITY:
          KAROL KOWALSKI, MARTA WLOCH, PIOTR PIECUCH
     UNIVERSITY OF SILESIA: MONIKA MUSIAL, STANISLAW KUCHARSKI
     FACULTES UNIVERSITAIRES NOTRE-DAME DE LA PAIX:
          OLIVIER QUINET, BENOIT CHAMPAGNE
     UNIVERSITY OF CALIFORNIA - SANTA BARBARA: BERNARD KIRTMAN
     INSTITUTE FOR MOLECULAR SCIENCE: KAZUYA ISHIMURA AND SHIGERU NAGASE
     UNIVERSITY OF NOTRE DAME: DAN CHIPMAN
     KYUSHU UNIVERSITY:
          FENG LONG GU, JACEK KORCHOWIEC, MARCIN MAKOWSKI, AND YURIKO AOKI
     PENNSYLVANIA STATE UNIVERSITY:
          TZVETELIN IORDANOV, CHET SWALINA, SHARON HAMMES-SCHIFFER


 PARALLEL VERSION RUNNING ON     8 PROCESSORS IN     1 NODES.

 EXECUTION OF GAMESS BEGUN Tue Sep 26 15:05:22 2017

            ECHO OF THE FIRST FEW INPUT CARDS -
 INPUT CARD> $CONTRL                                                                        
 INPUT CARD>   EXETYP=RUN COORD=UNIQUE  UNITS=ANGS                                          
 INPUT CARD>   RUNTYP=ENERGY SCFTYP=RHF CITYP=NONE                                          
 INPUT CARD>   MAXIT=100                                                                    
 INPUT CARD>   ISPHER=1                                                                     
 INPUT CARD>   MULT=1                                                                       
 INPUT CARD>   ICHARG=1                                                                     
 INPUT CARD>   MPLEVL=0                                                                     
 INPUT CARD>   ECP=READ                                                                     
 INPUT CARD> $END                                                                           
 INPUT CARD>                                                                                
 INPUT CARD> $GUESS                                                                         
 INPUT CARD>  GUESS=HUCKEL                                                                  
 INPUT CARD> $END                                                                           
 INPUT CARD>                                                                                
 INPUT CARD> $SCF                                                                           
 INPUT CARD>  DIRSCF=.T.                                                                    
 INPUT CARD> $END                                                                           
 INPUT CARD>                                                                                
 INPUT CARD> $BASIS                                                                         
 INPUT CARD>  EXTFIL=.TRUE.                                                                 
 INPUT CARD>  GBASIS=BASIS                                                                  
 INPUT CARD> $END                                                                           
 INPUT CARD>                                                                                
 INPUT CARD> $DATA                                                                          
 INPUT CARD>C3                                                                              
 INPUT CARD>C1                                                                              
 INPUT CARD>H  1.0          0.000000    0.000000    1.346928                                
 INPUT CARD>H  1.0          0.000000    1.288014   -1.456977                                
 INPUT CARD>H  1.0          0.000000   -1.288014   -1.456977                                
 INPUT CARD>H  1.0          0.000000    2.327889    1.454856                                
 INPUT CARD>H  1.0          0.000000   -2.327889    1.454856                                
 INPUT CARD>H  1.0          0.000000    3.790846   -1.108170                                
 INPUT CARD>H  1.0          0.000000   -3.790846   -1.108170                                
 INPUT CARD>H  1.0          0.000000    4.419815    0.489308                                
 INPUT CARD>H  1.0          0.000000   -4.419815    0.489308                                
 INPUT CARD>C  6.0          0.000000    0.000000    0.258703                                
 INPUT CARD>C  6.0          0.000000    1.233147   -0.373850                                
 INPUT CARD>C  6.0          0.000000   -1.233147   -0.373850                                
 INPUT CARD>C  6.0          0.000000    2.393799    0.371447                                
 INPUT CARD>C  6.0          0.000000   -2.393799    0.371447                                
 INPUT CARD>N  7.0          0.000000    3.618036   -0.116310                                
 INPUT CARD>N  7.0          0.000000   -3.618036   -0.116310                                
 INPUT CARD> $END                                                                           
 INPUT CARD>                                                                                
 INPUT CARD> $ECP                                                                           
 INPUT CARD>H GEN 0 0                                                                       
 INPUT CARD>3                                                                               
 INPUT CARD>1.00000000 1 4.47692410                                                         
 INPUT CARD>4.47692410 3 2.97636451                                                         

 ..... DONE SETTING UP THE RUN .....
    1000000 WORDS OF MEMORY AVAILABLE

     $BASIS REQUESTS READING THE "BASIS   " BASIS SET FROM AN EXTERNAL FILE


     RUN TITLE
     ---------
 C3                                                                              

 THE POINT GROUP OF THE MOLECULE IS C1      
 THE ORDER OF THE PRINCIPAL AXIS IS     0

 THE EXTERNAL BASIS SET FILE BEING READ IS
     "/home/scemama/Cyanines/Runs/AVDZ_Pseudo/BASIS"
 *** WARNING! ATOM   1 SHELL    1 TYPE S HAS NORMALIZATION   1.32259418
 *** WARNING! ATOM   1 SHELL    3 TYPE P HAS NORMALIZATION  22.65171974
 *** WARNING! ATOM   2 SHELL    6 TYPE S HAS NORMALIZATION   1.32259418
 *** WARNING! ATOM   2 SHELL    8 TYPE P HAS NORMALIZATION  22.65171974
 *** WARNING! ATOM   3 SHELL   11 TYPE S HAS NORMALIZATION   1.32259418
 *** WARNING! ATOM   3 SHELL   13 TYPE P HAS NORMALIZATION  22.65171974
 *** WARNING! ATOM   4 SHELL   16 TYPE S HAS NORMALIZATION   1.32259418
 *** WARNING! ATOM   4 SHELL   18 TYPE P HAS NORMALIZATION  22.65171974
 *** WARNING! ATOM   5 SHELL   21 TYPE S HAS NORMALIZATION   1.32259418
 *** WARNING! ATOM   5 SHELL   23 TYPE P HAS NORMALIZATION  22.65171974
 *** WARNING! ATOM   6 SHELL   26 TYPE S HAS NORMALIZATION   1.32259418
 *** WARNING! ATOM   6 SHELL   28 TYPE P HAS NORMALIZATION  22.65171974
 *** WARNING! ATOM   7 SHELL   31 TYPE S HAS NORMALIZATION   1.32259418
 *** WARNING! ATOM   7 SHELL   33 TYPE P HAS NORMALIZATION  22.65171974
 *** WARNING! ATOM   8 SHELL   36 TYPE S HAS NORMALIZATION   1.32259418
 *** WARNING! ATOM   8 SHELL   38 TYPE P HAS NORMALIZATION  22.65171974
 *** WARNING! ATOM   9 SHELL   41 TYPE S HAS NORMALIZATION   1.32259418
 *** WARNING! ATOM   9 SHELL   43 TYPE P HAS NORMALIZATION  22.65171974

 ATOM      ATOMIC                      COORDINATES (BOHR)
           CHARGE         X                   Y                   Z
 H           1.0     0.0000000000        0.0000000000        2.5453248452
 H           1.0     0.0000000000        2.4339935283       -2.7532873004
 H           1.0     0.0000000000       -2.4339935283       -2.7532873004
 H           1.0     0.0000000000        4.3990723398        2.7492791916
 H           1.0     0.0000000000       -4.3990723398        2.7492791916
 H           1.0     0.0000000000        7.1636602017       -2.0941376478
 H           1.0     0.0000000000       -7.1636602017       -2.0941376478
 H           1.0     0.0000000000        8.3522392664        0.9246580436
 H           1.0     0.0000000000       -8.3522392664        0.9246580436
 C           6.0     0.0000000000        0.0000000000        0.4888777822
 C           6.0     0.0000000000        2.3303099326       -0.7064740605
 C           6.0     0.0000000000       -2.3303099326       -0.7064740605
 C           6.0     0.0000000000        4.5236241797        0.7019330490
 C           6.0     0.0000000000       -4.5236241797        0.7019330490
 N           7.0     0.0000000000        6.8370966537       -0.2197940296
 N           7.0     0.0000000000       -6.8370966537       -0.2197940296

          INTERNUCLEAR DISTANCES (ANGS.)
          ------------------------------

                    H              H              H              H         

  1  H               0.0000000      3.0855896      3.0855896      2.3303896 *  
  2  H               3.0855896      0.0000000      2.5760280 *    3.0919430    
  3  H               3.0855896      2.5760280 *    0.0000000      4.6425775    
  4  H               2.3303896 *    3.0919430      4.6425775      0.0000000    
  5  H               2.3303896 *    4.6425775      3.0919430      4.6557780    
  6  H               4.5164167      2.5270208 *    5.0908236      2.9511600 *  
  7  H               4.5164167      5.0908236      2.5270208 *    6.6338541    
  8  H               4.5022524      3.6873029      6.0305337      2.3040046 *  
  9  H               4.5022524      6.0305337      3.6873029      6.8164354    
 10  C               1.0882250 *    2.1453526 *    2.1453526 *    2.6172217 *  
 11  C               2.1170093 *    1.0845158 *    2.7439783 *    2.1313436 *  
 12  C               2.1170093 *    2.7439783 *    1.0845158 *    4.0031416    
 13  C               2.5849249 *    2.1367954 *    4.1108249      1.0854120 *  
 14  C               2.5849249 *    4.1108249      2.1367954 *    4.8443898    
 15  N               3.9027234      2.6881947 *    5.0859330      2.0329884 *  
 16  N               3.9027234      5.0859330      2.6881947 *    6.1500070    

                    H              H              H              H         

  1  H               2.3303896 *    4.5164167      4.5164167      4.5022524    
  2  H               4.6425775      2.5270208 *    5.0908236      3.6873029    
  3  H               3.0919430      5.0908236      2.5270208 *    6.0305337    
  4  H               4.6557780      2.9511600 *    6.6338541      2.3040046 *  
  5  H               0.0000000      6.6338541      2.9511600 *    6.8164354    
  6  H               6.6338541      0.0000000      7.5816920      1.7168395 *  
  7  H               2.9511600 *    7.5816920      0.0000000      8.3646213    
  8  H               6.8164354      1.7168395 *    8.3646213      0.0000000    
  9  H               2.3040046 *    8.3646213      1.7168395 *    8.8396300    
 10  C               2.6172217 *    4.0297463      4.0297463      4.4258268    
 11  C               4.0031416      2.6610242 *    5.0773745      3.3014989    
 12  C               2.1313436 *    5.0773745      2.6610242 *    5.7184807    
 13  C               4.8443898      2.0349464 *    6.3591745      2.0294413 *  
 14  C               1.0854120 *    6.3591745      2.0349464 *    6.8146333    
 15  N               6.1500070      1.0068016 *    7.4749795      1.0047998 *  
 16  N               2.0329884 *    7.4749795      1.0068016 *    8.0606341    

                    H              C              C              C         

  1  H               4.5022524      1.0882250 *    2.1170093 *    2.1170093 *  
  2  H               6.0305337      2.1453526 *    1.0845158 *    2.7439783 *  
  3  H               3.6873029      2.1453526 *    2.7439783 *    1.0845158 *  
  4  H               6.8164354      2.6172217 *    2.1313436 *    4.0031416    
  5  H               2.3040046 *    2.6172217 *    4.0031416      2.1313436 *  
  6  H               8.3646213      4.0297463      2.6610242 *    5.0773745    
  7  H               1.7168395 *    4.0297463      5.0773745      2.6610242 *  
  8  H               8.8396300      4.4258268      3.3014989      5.7184807    
  9  H               0.0000000      4.4258268      5.7184807      3.3014989    
 10  C               4.4258268      0.0000000      1.3859202 *    1.3859202 *  
 11  C               5.7184807      1.3859202 *    0.0000000      2.4662940 *  
 12  C               3.3014989      1.3859202 *    2.4662940 *    0.0000000    
 13  C               6.8146333      2.3964526 *    1.3793407 *    3.7027294    
 14  C               2.0294413 *    2.3964526 *    3.7027294      1.3793407 *  
 15  N               8.0606341      3.6374193      2.3987543 *    4.8580143    
 16  N               1.0047998 *    3.6374193      4.8580143      2.3987543 *  

                    C              C              N              N         

  1  H               2.5849249 *    2.5849249 *    3.9027234      3.9027234    
  2  H               2.1367954 *    4.1108249      2.6881947 *    5.0859330    
  3  H               4.1108249      2.1367954 *    5.0859330      2.6881947 *  
  4  H               1.0854120 *    4.8443898      2.0329884 *    6.1500070    
  5  H               4.8443898      1.0854120 *    6.1500070      2.0329884 *  
  6  H               2.0349464 *    6.3591745      1.0068016 *    7.4749795    
  7  H               6.3591745      2.0349464 *    7.4749795      1.0068016 *  
  8  H               2.0294413 *    6.8146333      1.0047998 *    8.0606341    
  9  H               6.8146333      2.0294413 *    8.0606341      1.0047998 *  
 10  C               2.3964526 *    2.3964526 *    3.6374193      3.6374193    
 11  C               1.3793407 *    3.7027294      2.3987543 *    4.8580143    
 12  C               3.7027294      1.3793407 *    4.8580143      2.3987543 *  
 13  C               0.0000000      4.7875980      1.3178251 *    6.0315891    
 14  C               4.7875980      0.0000000      6.0315891      1.3178251 *  
 15  N               1.3178251 *    6.0315891      0.0000000      7.2360720    
 16  N               6.0315891      1.3178251 *    7.2360720      0.0000000    

  * ... LESS THAN  3.000


     ATOMIC BASIS SET
     ----------------
 THE CONTRACTED PRIMITIVE FUNCTIONS HAVE BEEN UNNORMALIZED
 THE CONTRACTED BASIS FUNCTIONS ARE NOW NORMALIZED TO UNITY

  SHELL TYPE  PRIMITIVE        EXPONENT          CONTRACTION COEFFICIENT(S)

 H         

      1   S       1             0.0130000    0.000933751491
      1   S       2             0.0299000   -0.002802577067
      1   S       3             0.0687700    0.076304426024
      1   S       4             0.1581700    0.305115864344
      1   S       5             0.3637920    0.367168015485
      1   S       6             0.8367210    0.224620137364
      1   S       7             1.9244580    0.128877544677
      1   S       8             4.4262540    0.039632857196
      1   S       9            10.1803850   -0.000597812569

      2   S      10             0.1704830    1.000000000000

      3   P      11             0.0030000    0.028133435917
      3   P      12             0.0078000   -0.020681020122
      3   P      13             0.0202810   -0.001223192866
      3   P      14             0.0527300   -0.005391109298
      3   P      15             0.1370970   -0.261174328600
      3   P      16             0.3564510   -0.413054109456
      3   P      17             0.9267740   -0.315515804256
      3   P      18             2.4096120   -0.212812906956
      3   P      19             6.2649910   -0.007860146750

      4   S      20             0.0297400    1.000000000000

      5   P      21             0.1410000    1.000000000000

 H         

      6   S      22             0.0130000    0.000933751491
      6   S      23             0.0299000   -0.002802577067
      6   S      24             0.0687700    0.076304426024
      6   S      25             0.1581700    0.305115864344
      6   S      26             0.3637920    0.367168015485
      6   S      27             0.8367210    0.224620137364
      6   S      28             1.9244580    0.128877544677
      6   S      29             4.4262540    0.039632857196
      6   S      30            10.1803850   -0.000597812569

      7   S      31             0.1704830    1.000000000000

      8   P      32             0.0030000    0.028133435917
      8   P      33             0.0078000   -0.020681020122
      8   P      34             0.0202810   -0.001223192866
      8   P      35             0.0527300   -0.005391109298
      8   P      36             0.1370970   -0.261174328600
      8   P      37             0.3564510   -0.413054109456
      8   P      38             0.9267740   -0.315515804256
      8   P      39             2.4096120   -0.212812906956
      8   P      40             6.2649910   -0.007860146750

      9   S      41             0.0297400    1.000000000000

     10   P      42             0.1410000    1.000000000000

 H         

     11   S      43             0.0130000    0.000933751491
     11   S      44             0.0299000   -0.002802577067
     11   S      45             0.0687700    0.076304426024
     11   S      46             0.1581700    0.305115864344
     11   S      47             0.3637920    0.367168015485
     11   S      48             0.8367210    0.224620137364
     11   S      49             1.9244580    0.128877544677
     11   S      50             4.4262540    0.039632857196
     11   S      51            10.1803850   -0.000597812569

     12   S      52             0.1704830    1.000000000000

     13   P      53             0.0030000    0.028133435917
     13   P      54             0.0078000   -0.020681020122
     13   P      55             0.0202810   -0.001223192866
     13   P      56             0.0527300   -0.005391109298
     13   P      57             0.1370970   -0.261174328600
     13   P      58             0.3564510   -0.413054109456
     13   P      59             0.9267740   -0.315515804256
     13   P      60             2.4096120   -0.212812906956
     13   P      61             6.2649910   -0.007860146750

     14   S      62             0.0297400    1.000000000000

     15   P      63             0.1410000    1.000000000000

 H         

     16   S      64             0.0130000    0.000933751491
     16   S      65             0.0299000   -0.002802577067
     16   S      66             0.0687700    0.076304426024
     16   S      67             0.1581700    0.305115864344
     16   S      68             0.3637920    0.367168015485
     16   S      69             0.8367210    0.224620137364
     16   S      70             1.9244580    0.128877544677
     16   S      71             4.4262540    0.039632857196
     16   S      72            10.1803850   -0.000597812569

     17   S      73             0.1704830    1.000000000000

     18   P      74             0.0030000    0.028133435917
     18   P      75             0.0078000   -0.020681020122
     18   P      76             0.0202810   -0.001223192866
     18   P      77             0.0527300   -0.005391109298
     18   P      78             0.1370970   -0.261174328600
     18   P      79             0.3564510   -0.413054109456
     18   P      80             0.9267740   -0.315515804256
     18   P      81             2.4096120   -0.212812906956
     18   P      82             6.2649910   -0.007860146750

     19   S      83             0.0297400    1.000000000000

     20   P      84             0.1410000    1.000000000000

 H         

     21   S      85             0.0130000    0.000933751491
     21   S      86             0.0299000   -0.002802577067
     21   S      87             0.0687700    0.076304426024
     21   S      88             0.1581700    0.305115864344
     21   S      89             0.3637920    0.367168015485
     21   S      90             0.8367210    0.224620137364
     21   S      91             1.9244580    0.128877544677
     21   S      92             4.4262540    0.039632857196
     21   S      93            10.1803850   -0.000597812569

     22   S      94             0.1704830    1.000000000000

     23   P      95             0.0030000    0.028133435917
     23   P      96             0.0078000   -0.020681020122
     23   P      97             0.0202810   -0.001223192866
     23   P      98             0.0527300   -0.005391109298
     23   P      99             0.1370970   -0.261174328600
     23   P     100             0.3564510   -0.413054109456
     23   P     101             0.9267740   -0.315515804256
     23   P     102             2.4096120   -0.212812906956
     23   P     103             6.2649910   -0.007860146750

     24   S     104             0.0297400    1.000000000000

     25   P     105             0.1410000    1.000000000000

 H         

     26   S     106             0.0130000    0.000933751491
     26   S     107             0.0299000   -0.002802577067
     26   S     108             0.0687700    0.076304426024
     26   S     109             0.1581700    0.305115864344
     26   S     110             0.3637920    0.367168015485
     26   S     111             0.8367210    0.224620137364
     26   S     112             1.9244580    0.128877544677
     26   S     113             4.4262540    0.039632857196
     26   S     114            10.1803850   -0.000597812569

     27   S     115             0.1704830    1.000000000000

     28   P     116             0.0030000    0.028133435917
     28   P     117             0.0078000   -0.020681020122
     28   P     118             0.0202810   -0.001223192866
     28   P     119             0.0527300   -0.005391109298
     28   P     120             0.1370970   -0.261174328600
     28   P     121             0.3564510   -0.413054109456
     28   P     122             0.9267740   -0.315515804256
     28   P     123             2.4096120   -0.212812906956
     28   P     124             6.2649910   -0.007860146750

     29   S     125             0.0297400    1.000000000000

     30   P     126             0.1410000    1.000000000000

 H         

     31   S     127             0.0130000    0.000933751491
     31   S     128             0.0299000   -0.002802577067
     31   S     129             0.0687700    0.076304426024
     31   S     130             0.1581700    0.305115864344
     31   S     131             0.3637920    0.367168015485
     31   S     132             0.8367210    0.224620137364
     31   S     133             1.9244580    0.128877544677
     31   S     134             4.4262540    0.039632857196
     31   S     135            10.1803850   -0.000597812569

     32   S     136             0.1704830    1.000000000000

     33   P     137             0.0030000    0.028133435917
     33   P     138             0.0078000   -0.020681020122
     33   P     139             0.0202810   -0.001223192866
     33   P     140             0.0527300   -0.005391109298
     33   P     141             0.1370970   -0.261174328600
     33   P     142             0.3564510   -0.413054109456
     33   P     143             0.9267740   -0.315515804256
     33   P     144             2.4096120   -0.212812906956
     33   P     145             6.2649910   -0.007860146750

     34   S     146             0.0297400    1.000000000000

     35   P     147             0.1410000    1.000000000000

 H         

     36   S     148             0.0130000    0.000933751491
     36   S     149             0.0299000   -0.002802577067
     36   S     150             0.0687700    0.076304426024
     36   S     151             0.1581700    0.305115864344
     36   S     152             0.3637920    0.367168015485
     36   S     153             0.8367210    0.224620137364
     36   S     154             1.9244580    0.128877544677
     36   S     155             4.4262540    0.039632857196
     36   S     156            10.1803850   -0.000597812569

     37   S     157             0.1704830    1.000000000000

     38   P     158             0.0030000    0.028133435917
     38   P     159             0.0078000   -0.020681020122
     38   P     160             0.0202810   -0.001223192866
     38   P     161             0.0527300   -0.005391109298
     38   P     162             0.1370970   -0.261174328600
     38   P     163             0.3564510   -0.413054109456
     38   P     164             0.9267740   -0.315515804256
     38   P     165             2.4096120   -0.212812906956
     38   P     166             6.2649910   -0.007860146750

     39   S     167             0.0297400    1.000000000000

     40   P     168             0.1410000    1.000000000000

 H         

     41   S     169             0.0130000    0.000933751491
     41   S     170             0.0299000   -0.002802577067
     41   S     171             0.0687700    0.076304426024
     41   S     172             0.1581700    0.305115864344
     41   S     173             0.3637920    0.367168015485
     41   S     174             0.8367210    0.224620137364
     41   S     175             1.9244580    0.128877544677
     41   S     176             4.4262540    0.039632857196
     41   S     177            10.1803850   -0.000597812569

     42   S     178             0.1704830    1.000000000000

     43   P     179             0.0030000    0.028133435917
     43   P     180             0.0078000   -0.020681020122
     43   P     181             0.0202810   -0.001223192866
     43   P     182             0.0527300   -0.005391109298
     43   P     183             0.1370970   -0.261174328600
     43   P     184             0.3564510   -0.413054109456
     43   P     185             0.9267740   -0.315515804256
     43   P     186             2.4096120   -0.212812906956
     43   P     187             6.2649910   -0.007860146750

     44   S     188             0.0297400    1.000000000000

     45   P     189             0.1410000    1.000000000000

 C         

     46   S     190             0.0513440    0.013990987871
     46   S     191             0.1026190    0.169851852753
     46   S     192             0.2051000    0.397528655377
     46   S     193             0.4099240    0.380368670253
     46   S     194             0.8192970    0.180112843858
     46   S     195             1.6374940   -0.033511970948
     46   S     196             3.2727910   -0.121498894671
     46   S     197             6.5411870    0.015175986844
     46   S     198            13.0735940   -0.000704999389

     47   S     199             0.1278520    1.000000000000

     48   P     200             0.0292810    0.001787000047
     48   P     201             0.0585470    0.050426001336
     48   P     202             0.1170630    0.191634005079
     48   P     203             0.2340640    0.302667008021
     48   P     204             0.4680030    0.289868007682
     48   P     205             0.9357570    0.210979005591
     48   P     206             1.8710160    0.112024002969
     48   P     207             3.7410350    0.054425001442
     48   P     208             7.4800760    0.021931000581

     49   P     209             0.1491610    1.000000000000

     50   D     210             0.5611600    1.000000000000

     51   S     211             0.0469000    1.000000000000

     52   P     212             0.0404100    1.000000000000

     53   D     213             0.1510000    1.000000000000

 C         

     54   S     214             0.0513440    0.013990987871
     54   S     215             0.1026190    0.169851852753
     54   S     216             0.2051000    0.397528655377
     54   S     217             0.4099240    0.380368670253
     54   S     218             0.8192970    0.180112843858
     54   S     219             1.6374940   -0.033511970948
     54   S     220             3.2727910   -0.121498894671
     54   S     221             6.5411870    0.015175986844
     54   S     222            13.0735940   -0.000704999389

     55   S     223             0.1278520    1.000000000000

     56   P     224             0.0292810    0.001787000047
     56   P     225             0.0585470    0.050426001336
     56   P     226             0.1170630    0.191634005079
     56   P     227             0.2340640    0.302667008021
     56   P     228             0.4680030    0.289868007682
     56   P     229             0.9357570    0.210979005591
     56   P     230             1.8710160    0.112024002969
     56   P     231             3.7410350    0.054425001442
     56   P     232             7.4800760    0.021931000581

     57   P     233             0.1491610    1.000000000000

     58   D     234             0.5611600    1.000000000000

     59   S     235             0.0469000    1.000000000000

     60   P     236             0.0404100    1.000000000000

     61   D     237             0.1510000    1.000000000000

 C         

     62   S     238             0.0513440    0.013990987871
     62   S     239             0.1026190    0.169851852753
     62   S     240             0.2051000    0.397528655377
     62   S     241             0.4099240    0.380368670253
     62   S     242             0.8192970    0.180112843858
     62   S     243             1.6374940   -0.033511970948
     62   S     244             3.2727910   -0.121498894671
     62   S     245             6.5411870    0.015175986844
     62   S     246            13.0735940   -0.000704999389

     63   S     247             0.1278520    1.000000000000

     64   P     248             0.0292810    0.001787000047
     64   P     249             0.0585470    0.050426001336
     64   P     250             0.1170630    0.191634005079
     64   P     251             0.2340640    0.302667008021
     64   P     252             0.4680030    0.289868007682
     64   P     253             0.9357570    0.210979005591
     64   P     254             1.8710160    0.112024002969
     64   P     255             3.7410350    0.054425001442
     64   P     256             7.4800760    0.021931000581

     65   P     257             0.1491610    1.000000000000

     66   D     258             0.5611600    1.000000000000

     67   S     259             0.0469000    1.000000000000

     68   P     260             0.0404100    1.000000000000

     69   D     261             0.1510000    1.000000000000

 C         

     70   S     262             0.0513440    0.013990987871
     70   S     263             0.1026190    0.169851852753
     70   S     264             0.2051000    0.397528655377
     70   S     265             0.4099240    0.380368670253
     70   S     266             0.8192970    0.180112843858
     70   S     267             1.6374940   -0.033511970948
     70   S     268             3.2727910   -0.121498894671
     70   S     269             6.5411870    0.015175986844
     70   S     270            13.0735940   -0.000704999389

     71   S     271             0.1278520    1.000000000000

     72   P     272             0.0292810    0.001787000047
     72   P     273             0.0585470    0.050426001336
     72   P     274             0.1170630    0.191634005079
     72   P     275             0.2340640    0.302667008021
     72   P     276             0.4680030    0.289868007682
     72   P     277             0.9357570    0.210979005591
     72   P     278             1.8710160    0.112024002969
     72   P     279             3.7410350    0.054425001442
     72   P     280             7.4800760    0.021931000581

     73   P     281             0.1491610    1.000000000000

     74   D     282             0.5611600    1.000000000000

     75   S     283             0.0469000    1.000000000000

     76   P     284             0.0404100    1.000000000000

     77   D     285             0.1510000    1.000000000000

 C         

     78   S     286             0.0513440    0.013990987871
     78   S     287             0.1026190    0.169851852753
     78   S     288             0.2051000    0.397528655377
     78   S     289             0.4099240    0.380368670253
     78   S     290             0.8192970    0.180112843858
     78   S     291             1.6374940   -0.033511970948
     78   S     292             3.2727910   -0.121498894671
     78   S     293             6.5411870    0.015175986844
     78   S     294            13.0735940   -0.000704999389

     79   S     295             0.1278520    1.000000000000

     80   P     296             0.0292810    0.001787000047
     80   P     297             0.0585470    0.050426001336
     80   P     298             0.1170630    0.191634005079
     80   P     299             0.2340640    0.302667008021
     80   P     300             0.4680030    0.289868007682
     80   P     301             0.9357570    0.210979005591
     80   P     302             1.8710160    0.112024002969
     80   P     303             3.7410350    0.054425001442
     80   P     304             7.4800760    0.021931000581

     81   P     305             0.1491610    1.000000000000

     82   D     306             0.5611600    1.000000000000

     83   S     307             0.0469000    1.000000000000

     84   P     308             0.0404100    1.000000000000

     85   D     309             0.1510000    1.000000000000

 N         

     86   S     310             0.0988690    0.067266010234
     86   S     311             0.2114430    0.334290050859
     86   S     312             0.4521970    0.454257069111
     86   S     313             0.9670800    0.267861040752
     86   S     314             2.0682210    0.000248000038
     86   S     315             4.4231500   -0.132606020175
     86   S     316             9.4594620    0.014437002196
     86   S     317            20.2302460    0.000359000055
     86   S     318            43.2649190   -0.000094000014

     87   S     319             0.1751230    1.000000000000

     88   P     320             0.0732340    0.035757988749
     88   P     321             0.1458670    0.153944951562
     88   P     322             0.2905350    0.277655912638
     88   P     323             0.5786830    0.297675906338
     88   P     324             1.1526120    0.234402926247
     88   P     325             2.2957560    0.140320955849
     88   P     326             4.5726520    0.067218978850
     88   P     327             9.1077390    0.031593990059
     88   P     328            18.1406570    0.003300998961

     89   P     329             0.2230420    1.000000000000

     90   D     330             0.8320580    1.000000000000

     91   S     331             0.0612400    1.000000000000

     92   P     332             0.0561100    1.000000000000

     93   D     333             0.2300000    1.000000000000

 N         

     94   S     334             0.0988690    0.067266010234
     94   S     335             0.2114430    0.334290050859
     94   S     336             0.4521970    0.454257069111
     94   S     337             0.9670800    0.267861040752
     94   S     338             2.0682210    0.000248000038
     94   S     339             4.4231500   -0.132606020175
     94   S     340             9.4594620    0.014437002196
     94   S     341            20.2302460    0.000359000055
     94   S     342            43.2649190   -0.000094000014

     95   S     343             0.1751230    1.000000000000

     96   P     344             0.0732340    0.035757988749
     96   P     345             0.1458670    0.153944951562
     96   P     346             0.2905350    0.277655912638
     96   P     347             0.5786830    0.297675906338
     96   P     348             1.1526120    0.234402926247
     96   P     349             2.2957560    0.140320955849
     96   P     350             4.5726520    0.067218978850
     96   P     351             9.1077390    0.031593990059
     96   P     352            18.1406570    0.003300998961

     97   P     353             0.2230420    1.000000000000

     98   D     354             0.8320580    1.000000000000

     99   S     355             0.0612400    1.000000000000

    100   P     356             0.0561100    1.000000000000

    101   D     357             0.2300000    1.000000000000

 TOTAL NUMBER OF BASIS SET SHELLS             =  101
 NUMBER OF CARTESIAN GAUSSIAN BASIS FUNCTIONS =  249
 NOTE: THIS RUN WILL RESTRICT THE MO VARIATION SPACE TO SPHERICAL HARMONICS.
 THE NUMBER OF ORBITALS KEPT IN THE VARIATIONAL SPACE WILL BE PRINTED LATER.
 NUMBER OF ELECTRONS                          =   52
 CHARGE OF MOLECULE                           =    1
 SPIN MULTIPLICITY                            =    1
 NUMBER OF OCCUPIED ORBITALS (ALPHA)          =   26
 NUMBER OF OCCUPIED ORBITALS (BETA )          =   26
 TOTAL NUMBER OF ATOMS                        =   16
 THE NUCLEAR REPULSION ENERGY IS      266.4771007768
 NOTE THIS RUN IS USING CORE POTENTIALS, AND THE NUMBER OF ELECTRONS,
 OCCUPIED ORBITALS, AND NUCLEAR REPULSION ENERGY WILL BE ADJUSTED BELOW
 AFTER REMOVAL OF THE CORE CHARGES.

     $CONTRL OPTIONS
     ---------------
 SCFTYP=RHF          RUNTYP=ENERGY       EXETYP=RUN     
 MPLEVL=       0     CITYP =NONE         CCTYP =NONE         VBTYP =NONE    
 MULT  =       1     ICHARG=       1     NZVAR =       0     COORD =UNIQUE  
 PP    =READ         RELWFN=NONE         LOCAL =NONE         NUMGRD=       F
 ISPHER=       1     NOSYM =       0     MAXIT =     100     UNITS =ANGS    
 PLTORB=       F     MOLPLT=       F     AIMPAC=       F     FRIEND=        
 NPRINT=       7     IREST =       0     GEOM  =INPUT   
 NORMF =       0     NORMP =       0     ITOL  =      20     ICUT  =       9
 INTTYP=BEST         GRDTYP=BEST         QMTTOL= 1.0E-06

     $SYSTEM OPTIONS
     ---------------
  REPLICATED MEMORY=     1000000 WORDS (ON EVERY NODE).
 DISTRIBUTED MEMDDI=           0 MILLION WORDS IN AGGREGATE,
 MEMDDI DISTRIBUTED OVER   8 PROCESSORS IS           0 WORDS/PROCESSOR.
 TOTAL MEMORY REQUESTED ON EACH PROCESSOR=     1000000 WORDS.
 TIMLIM=      525600.00 MINUTES, OR   365.00 DAYS.
 PARALL= T  BALTYP=  NXTVAL  KDIAG=    0  COREFL= F

          --------------
          ECP POTENTIALS
          --------------

 PARAMETERS FOR "H       " ON ATOM    1 WITH ZCORE   0 AND LMAX  0 ARE
 FOR L= 0      COEFF    N           ZETA
    1        1.00000    1        4.47692
    2        4.47692    3        2.97636
    3       -4.32112    2        3.01842

 PARAMETERS FOR "H       " ON ATOM    2 ARE THE SAME AS ATOM   1

 PARAMETERS FOR "H       " ON ATOM    3 ARE THE SAME AS ATOM   1

 PARAMETERS FOR "H       " ON ATOM    4 ARE THE SAME AS ATOM   1

 PARAMETERS FOR "H       " ON ATOM    5 ARE THE SAME AS ATOM   1

 PARAMETERS FOR "H       " ON ATOM    6 ARE THE SAME AS ATOM   1

 PARAMETERS FOR "H       " ON ATOM    7 ARE THE SAME AS ATOM   1

 PARAMETERS FOR "H       " ON ATOM    8 ARE THE SAME AS ATOM   1

 PARAMETERS FOR "H       " ON ATOM    9 ARE THE SAME AS ATOM   1

 PARAMETERS FOR "C       " ON ATOM   10 WITH ZCORE   2 AND LMAX  1 ARE
 FOR L= 1      COEFF    N           ZETA
    1        4.00000    1        8.35974
    2       33.43895    3        4.48362
    3      -19.17537    2        3.93831
 FOR L= 0      COEFF    N           ZETA
    1       22.55164    2        5.02992

 PARAMETERS FOR "C       " ON ATOM   11 ARE THE SAME AS ATOM  10

 PARAMETERS FOR "C       " ON ATOM   12 ARE THE SAME AS ATOM  10

 PARAMETERS FOR "C       " ON ATOM   13 ARE THE SAME AS ATOM  10

 PARAMETERS FOR "C       " ON ATOM   14 ARE THE SAME AS ATOM  10

 PARAMETERS FOR "N       " ON ATOM   15 WITH ZCORE   2 AND LMAX  1 ARE
 FOR L= 1      COEFF    N           ZETA
    1        5.00000    1        9.23501
    2       46.17505    3        7.66830
    3      -30.18894    2        7.34486
 FOR L= 0      COEFF    N           ZETA
    1       31.69720    2        6.99537

 PARAMETERS FOR "N       " ON ATOM   16 ARE THE SAME AS ATOM  15

 THE ECP RUN REMOVES   14 CORE ELECTRONS, AND THE SAME NUMBER OF PROTONS.
 NUMBER OF ELECTRONS KEPT IN THE CALCULATION IS =   38
 NUMBER OF OCCUPIED ORBITALS (ALPHA) KEPT IS    =   19
 NUMBER OF OCCUPIED ORBITALS (BETA ) KEPT IS    =   19
 THE ADJUSTED NUCLEAR REPULSION ENERGY=      144.0584491924
          ECP ANGULAR INTS.........     0.00 SECONDS

          ----------------
          PROPERTIES INPUT
          ----------------

     MOMENTS            FIELD           POTENTIAL          DENSITY
 IEMOM =       1   IEFLD =       0   IEPOT =       0   IEDEN =       0
 WHERE =COMASS     WHERE =NUCLEI     WHERE =NUCLEI     WHERE =NUCLEI  
 OUTPUT=BOTH       OUTPUT=BOTH       OUTPUT=BOTH       OUTPUT=BOTH    
 IEMINT=       0   IEFINT=       0                     IEDINT=       0
                                                       MORB  =       0
          EXTRAPOLATION IN EFFECT
          SOSCF IN EFFECT
 ORBITAL PRINTING OPTION: NPREO=   1 249   2   1

     -------------------------------
     INTEGRAL TRANSFORMATION OPTIONS
     -------------------------------
     NWORD  =       0     CUTOFF = 1.0E-09
     MPTRAN =       0     DIRTRF =       T
     AOINTS =DUP     

          ----------------------
          INTEGRAL INPUT OPTIONS
          ----------------------
 NOPK  =       1 NORDER=       0 SCHWRZ=       T

     ------------------------------------------
     THE POINT GROUP IS C1 , NAXIS= 0, ORDER= 1
     ------------------------------------------

 -- VARIATIONAL SPACE WILL BE RESTRICTED TO PURE SPHERICAL HARMONICS ONLY --
 AFTER EXCLUDING CONTAMINANT COMBINATIONS FROM THE CARTESIAN GAUSSIAN BASIS
 SET, THE NUMBER OF SPHERICAL HARMONICS KEPT IN THE VARIATION SPACE IS  235

     DIMENSIONS OF THE SYMMETRY SUBSPACES ARE
 A   =  235

 ..... DONE SETTING UP THE RUN .....
 ON NODE 0, STEP CPU TIME =     0.03 TOTAL CPU TIME =        0.0 (    0.0 MIN)
 TOTAL WALL CLOCK TIME=        0.0 SECONDS, CPU UTILIZATION IS 100.00%

          ********************
          1 ELECTRON INTEGRALS
          ********************
 TIME TO DO ORDINARY INTEGRALS=      0.01
 TIME TO DO      ECP INTEGRALS=      0.17
 ...... END OF ONE-ELECTRON INTEGRALS ......
 ON NODE 0, STEP CPU TIME =     0.18 TOTAL CPU TIME =        0.2 (    0.0 MIN)
 TOTAL WALL CLOCK TIME=        0.0 SECONDS, CPU UTILIZATION IS 100.00%

          -------------
          GUESS OPTIONS
          -------------
          GUESS =HUCKEL            NORB  =       0          NORDER=       0
          MIX   =       F          PRTMO =       F          PUNMO =       F
          TOLZ  = 1.0E-08          TOLE  = 1.0E-05
          SYMDEN=       F          PURIFY=       F

 INITIAL GUESS ORBITALS GENERATED BY HUCKEL   ROUTINE.
 HUCKEL GUESS REQUIRES    464641 WORDS.

 STATISTICS FOR GENERATION OF SYMMETRY ORBITAL -Q- MATRIX
 NUMBER OF CARTESIAN ATOMIC ORBITALS=        249
 NUMBER OF SPHERICAL CONTAMINANTS DROPPED=    14
 NUMBER OF LINEARLY DEPENDENT MOS DROPPED=     0
 TOTAL NUMBER OF MOS IN VARIATION SPACE=     235

                    * * * * * WARNING * * * * *
 POSSIBLE LINEAR DEPENDENCE PROBLEMS DETECTED, INPUT QMTTOL= 1.0E-06,
 WITH     3 OVERLAP EIGENVALUES LYING BETWEEN 1.0E-05 AND QMTTOL.
 IF YOU EXPERIENCE SCF CONVERGENCE DIFFICULTIES WITH THE DENSITY ALMOST BUT
 NOT QUITE CONVERGED, YOU MAY NEED TO LOOSEN -QMTTOL- BY A FACTOR 5 TO 10.

 SYMMETRIES FOR INITIAL GUESS ORBITALS FOLLOW.   BOTH SET(S).
    19 ORBITALS ARE OCCUPIED (    0 CORE ORBITALS).
     1=A        2=A        3=A        4=A        5=A        6=A        7=A   
     8=A        9=A       10=A       11=A       12=A       13=A       14=A   
    15=A       16=A       17=A       18=A       19=A       20=A       21=A   
    22=A       23=A       24=A       25=A       26=A       27=A       28=A   
    29=A   
 ...... END OF INITIAL ORBITAL SELECTION ......
 ON NODE 0, STEP CPU TIME =     0.15 TOTAL CPU TIME =        0.4 (    0.0 MIN)
 TOTAL WALL CLOCK TIME=        0.0 SECONDS, CPU UTILIZATION IS 100.00%

                    ----------------------
                    AO INTEGRAL TECHNOLOGY
                    ----------------------
     S,P,L SHELL ROTATED AXIS INTEGRALS, REPROGRAMMED BY
        KAZUYA ISHIMURA (IMS) AND JOSE SIERRA (SYNSTAR).
     S,P,D,L SHELL ROTATED AXIS INTEGRALS PROGRAMMED BY
        KAZUYA ISHIMURA (INSTITUTE FOR MOLECULAR SCIENCE).
     S,P,D,F,G SHELL TO TOTAL QUARTET ANGULAR MOMENTUM SUM 5,
        ERIC PROGRAM BY GRAHAM FLETCHER (ELORET AND NASA ADVANCED
        SUPERCOMPUTING DIVISION, AMES RESEARCH CENTER).
     S,P,D,F,G,L SHELL GENERAL RYS QUADRATURE PROGRAMMED BY
        MICHEL DUPUIS (PACIFIC NORTHWEST NATIONAL LABORATORY).

          --------------------
          2 ELECTRON INTEGRALS
          --------------------

 DIRECT SCF METHOD SKIPS INTEGRAL STORAGE ON DISK.
 DIRECT TRANSFORMATION SKIPS AO INTEGRAL STORAGE ON DISK.
  ...... END OF TWO-ELECTRON INTEGRALS .....
 ON NODE 0, STEP CPU TIME =     0.00 TOTAL CPU TIME =        0.4 (    0.0 MIN)
 TOTAL WALL CLOCK TIME=        0.0 SECONDS, CPU UTILIZATION IS 100.00%

          --------------------------
                 RHF SCF CALCULATION
          --------------------------

     NUCLEAR ENERGY =       144.0584491924
     MAXIT =  100     NPUNCH=    2
     EXTRAP=T  DAMP=F  SHIFT=F  RSTRCT=F  DIIS=F  DEM=F  SOSCF=T
     DENSITY MATRIX CONV=  2.00E-05
     SOSCF WILL OPTIMIZE    4104 ORBITAL ROTATIONS, SOGTOL=   0.250
     MEMORY REQUIRED FOR RHF STEP=    509607 WORDS.

 DIRECT SCF CALCULATION, SCHWRZ=T   FDIFF=T,  DIRTHR=  0.00E+00 NITDIR=10
 SCHWARZ INEQUALITY OVERHEAD:     31017 INTEGRALS, T=        0.04

                                                                                   NONZERO     BLOCKS
 ITER EX DEM     TOTAL ENERGY        E CHANGE  DENSITY CHANGE     ORB. GRAD      INTEGRALS    SKIPPED
   1  0  0      -51.3652905916   -51.3652905916   5.445364040   0.000000000      237022576     265534
          ---------------START SECOND ORDER SCF---------------
   2  1  0      -52.0138137373    -0.6485231457   1.308335936   0.051548516      237196215     265582
   3  2  0      -52.0748823126    -0.0610685753   0.312048228   0.030395637      236676503     338283
   4  3  0      -52.0988328529    -0.0239505403   0.842428242   0.003790805      235780523     418153
   5  4  0      -52.0999930538    -0.0011602009   0.046596981   0.002257642      234903826     489854
   6  5  0      -52.1001530011    -0.0001599473   0.026317836   0.000497514      232386067     671370
   7  6  0      -52.1001642821    -0.0000112810   0.007456375   0.000168657      230219148     805983
   8  7  0      -52.1001659427    -0.0000016606   0.002582998   0.000056416      226858628     994825
   9  8  0      -52.1001660545    -0.0000001118   0.000458900   0.000013992      222347569    1258176
  10  9  0      -52.1001660688    -0.0000000143   0.000385088   0.000004282      216811306    1574744
  11 10  0      -52.1001660699    -0.0000000011   0.000093724   0.000001348      206911166    2113276
  12 11  0      -52.1001660708    -0.0000000009   0.000031385   0.000000540      201104930    2419905
  13 12  0      -52.1001660718    -0.0000000010   0.000036053   0.000000139      189238438    2960124

          ----------------
          ENERGY CONVERGED
          ----------------
     TIME TO FORM FOCK OPERATORS=     183.5 SECONDS (      14.1 SEC/ITER)
     FOCK TIME ON FIRST ITERATION=      15.1, LAST ITERATION=      11.1
     TIME TO SOLVE SCF EQUATIONS=       0.1 SECONDS (       0.0 SEC/ITER)

 FINAL RHF ENERGY IS      -52.1001660718 AFTER  13 ITERATIONS

          ------------
          EIGENVECTORS
          ------------

                      1          2          3          4          5
                   -1.4211    -1.4202    -1.2651    -1.1797    -1.0660
                     A          A          A          A          A   
    1  H  1  S    0.016280   0.000000   0.133561   0.000000  -0.104826
    2  H  1  S   -0.047641   0.000000  -0.139419   0.000000  -0.002296
    3  H  1  X    0.000000   0.000000   0.000000   0.000000   0.000000
    4  H  1  Y    0.000000   0.000792   0.000000   0.003268   0.000000
    5  H  1  Z    0.002809   0.000000   0.017683   0.000000  -0.011471
    6  H  1  S    0.041491   0.000000  -0.014664   0.000000   0.059313
    7  H  1  X    0.000000   0.000000   0.000000   0.000000   0.000000
    8  H  1  Y    0.000000  -0.018681   0.000000   0.014417   0.000000
    9  H  1  Z   -0.000125   0.000000   0.012526   0.000000   0.001683
   10  H  2  S    0.023901   0.019974   0.087009  -0.092245  -0.002601
   11  H  2  S   -0.035294   0.002431  -0.071745   0.009898  -0.015067
   12  H  2  X    0.000000   0.000000   0.000000   0.000000   0.000000
   13  H  2  Y   -0.000035   0.000023   0.001770  -0.000381  -0.004469
   14  H  2  Z   -0.004593  -0.003729  -0.013074   0.012153  -0.000518
   15  H  2  S   -0.007970  -0.046037  -0.000959   0.079071  -0.001707
   16  H  2  X    0.000000   0.000000   0.000000   0.000000   0.000000
   17  H  2  Y    0.000635  -0.005456  -0.002425   0.007151  -0.008543
   18  H  2  Z   -0.002907   0.003075  -0.005575   0.003259  -0.004622
   19  H  3  S    0.023901  -0.019974   0.087009   0.092245  -0.002601
   20  H  3  S   -0.035294  -0.002431  -0.071745  -0.009898  -0.015067
   21  H  3  X    0.000000   0.000000   0.000000   0.000000   0.000000
   22  H  3  Y    0.000035   0.000023  -0.001770  -0.000381   0.004469
   23  H  3  Z   -0.004593   0.003729  -0.013074  -0.012153  -0.000518
   24  H  3  S   -0.007970   0.046037  -0.000959  -0.079071  -0.001707
   25  H  3  X    0.000000   0.000000   0.000000   0.000000   0.000000
   26  H  3  Y   -0.000635  -0.005456   0.002425   0.007151   0.008543
   27  H  3  Z   -0.002907  -0.003075  -0.005575  -0.003259  -0.004622
   28  H  4  S    0.054051   0.053822   0.039392  -0.086129   0.136234
   29  H  4  S   -0.057902  -0.036991  -0.046555   0.005011  -0.002176
   30  H  4  X    0.000000   0.000000   0.000000   0.000000   0.000000
   31  H  4  Y   -0.001496  -0.001485   0.001842  -0.002835   0.000500
   32  H  4  Z    0.007853   0.007932   0.004704  -0.009834   0.013682
   33  H  4  S   -0.000947  -0.018946   0.042787   0.012304  -0.020593
   34  H  4  X    0.000000   0.000000   0.000000   0.000000   0.000000
   35  H  4  Y   -0.008753  -0.017066   0.002940  -0.004456   0.011472
   36  H  4  Z    0.007064   0.003612   0.005063   0.002676  -0.001192
   37  H  5  S    0.054051  -0.053821   0.039392   0.086129   0.136234
   38  H  5  S   -0.057902   0.036990  -0.046555  -0.005010  -0.002176
   39  H  5  X    0.000000   0.000000   0.000000   0.000000   0.000000
   40  H  5  Y    0.001496  -0.001485  -0.001842  -0.002835  -0.000500
   41  H  5  Z    0.007853  -0.007932   0.004704   0.009834   0.013682
   42  H  5  S   -0.000947   0.018946   0.042787  -0.012304  -0.020593
   43  H  5  X    0.000000   0.000000   0.000000   0.000000   0.000000
   44  H  5  Y    0.008753  -0.017065  -0.002940  -0.004456  -0.011472
   45  H  5  Z    0.007064  -0.003612   0.005063  -0.002676  -0.001192
   46  H  6  S    0.126354   0.128587  -0.053688   0.086748  -0.136877
   47  H  6  S   -0.004890  -0.006137  -0.009992  -0.008346   0.015579
   48  H  6  X    0.000000   0.000000   0.000000   0.000000   0.000000
   49  H  6  Y    0.004726   0.004773  -0.001265   0.000562   0.001715
   50  H  6  Z   -0.018036  -0.018022   0.006165  -0.008980   0.013312
   51  H  6  S   -0.005080  -0.000510   0.001148  -0.005947  -0.005733
   52  H  6  X    0.000000   0.000000   0.000000   0.000000   0.000000
   53  H  6  Y    0.006218   0.007583   0.002033  -0.001799   0.003562
   54  H  6  Z    0.002749   0.003541  -0.011781   0.003594  -0.000507
   55  H  7  S    0.126356  -0.128586  -0.053688  -0.086748  -0.136877
   56  H  7  S   -0.004890   0.006137  -0.009992   0.008346   0.015579
   57  H  7  X    0.000000   0.000000   0.000000   0.000000   0.000000
   58  H  7  Y   -0.004726   0.004773   0.001265   0.000562  -0.001715
   59  H  7  Z   -0.018036   0.018021   0.006165   0.008980   0.013312
   60  H  7  S   -0.005080   0.000510   0.001148   0.005947  -0.005733
   61  H  7  X    0.000000   0.000000   0.000000   0.000000   0.000000
   62  H  7  Y   -0.006218   0.007583  -0.002033  -0.001799  -0.003562
   63  H  7  Z    0.002749  -0.003541  -0.011781  -0.003594  -0.000507
   64  H  8  S    0.125037   0.127674  -0.066295   0.109526  -0.142814
   65  H  8  S    0.020448   0.012635   0.012479  -0.003228   0.027926
   66  H  8  X    0.000000   0.000000   0.000000   0.000000   0.000000
   67  H  8  Y    0.015647   0.015618  -0.006277   0.009270  -0.008248
   68  H  8  Z    0.009903   0.009975  -0.005247   0.008199  -0.010970
   69  H  8  S   -0.001359  -0.005194  -0.000203   0.005617  -0.000309
   70  H  8  X    0.000000   0.000000   0.000000   0.000000   0.000000
   71  H  8  Y   -0.011299  -0.007978  -0.004289  -0.003001  -0.002106
   72  H  8  Z   -0.009990  -0.010260  -0.000246   0.003331  -0.002492
   73  H  9  S    0.125038  -0.127672  -0.066295  -0.109526  -0.142814
   74  H  9  S    0.020448  -0.012635   0.012479   0.003228   0.027926
   75  H  9  X    0.000000   0.000000   0.000000   0.000000   0.000000
   76  H  9  Y   -0.015647   0.015618   0.006277   0.009270   0.008248
   77  H  9  Z    0.009904  -0.009975  -0.005247  -0.008199  -0.010970
   78  H  9  S   -0.001360   0.005194  -0.000203  -0.005617  -0.000309
   79  H  9  X    0.000000   0.000000   0.000000   0.000000   0.000000
   80  H  9  Y    0.011299  -0.007978   0.004289  -0.003001   0.002106
   81  H  9  Z   -0.009990   0.010260  -0.000246  -0.003331  -0.002492
   82  C 10  S    0.066502   0.000000   0.587279   0.000000  -0.430497
   83  C 10  S    0.173668   0.000001   0.104835   0.000000   0.805189
   84  C 10  X    0.000000   0.000000   0.000000   0.000000   0.000000
   85  C 10  Y    0.000000   0.025825   0.000000  -0.233791   0.000000
   86  C 10  Z   -0.006656   0.000000  -0.069685   0.000000   0.047118
   87  C 10  X    0.000000   0.000000   0.000000   0.000000   0.000000
   88  C 10  Y    0.000003  -0.503167   0.000000  -0.041152   0.000000
   89  C 10  Z   -0.146188  -0.000001  -0.212896   0.000000  -0.207097
   90  C 10 XX   -0.001580   0.000000  -0.015639   0.000000   0.008235
   91  C 10 YY    0.005332   0.000000   0.020502   0.000000   0.000219
   92  C 10 ZZ   -0.003753   0.000000  -0.004863   0.000000  -0.008455
   93  C 10 XY    0.000000   0.000000   0.000000   0.000000   0.000000
   94  C 10 XZ    0.000000   0.000000   0.000000   0.000000   0.000000
   95  C 10 YZ    0.000000   0.000202   0.000000   0.016453   0.000000
   96  C 10  S    0.282296   0.000002  -0.151840   0.000000   0.412321
   97  C 10  X    0.000000   0.000000   0.000000   0.000000   0.000000
   98  C 10  Y   -0.000001   0.197143   0.000000  -0.322524   0.000000
   99  C 10  Z   -0.053817   0.000000   0.004111   0.000000  -0.094787
  100  C 10 XX   -0.015087   0.000000   0.008993   0.000000  -0.068899
  101  C 10 YY   -0.059284   0.000000  -0.186812   0.000000   0.074954
  102  C 10 ZZ    0.074371   0.000000   0.177818   0.000000  -0.006054
  103  C 10 XY    0.000000   0.000000   0.000000   0.000000   0.000000
  104  C 10 XZ    0.000000   0.000000   0.000000   0.000000   0.000000
  105  C 10 YZ   -0.000001   0.123190   0.000000  -0.012156   0.000000
  106  C 11  S    0.110992   0.095214   0.430480  -0.454297   0.015218
  107  C 11  S    0.097079   0.345641  -0.057862   0.816960  -0.094927
  108  C 11  X    0.000000   0.000000   0.000000   0.000000   0.000000
  109  C 11  Y    0.034192   0.041075  -0.073718  -0.066480   0.244141
  110  C 11  Z    0.019388   0.017656   0.075136  -0.084358   0.024952
  111  C 11  X    0.000000   0.000000   0.000000   0.000000   0.000000
  112  C 11  Y    0.096228  -0.354184   0.112822   0.227100   0.197438
  113  C 11  Z    0.128104   0.118110   0.143986   0.219307  -0.016115
  114  C 11 XX   -0.002741  -0.002643  -0.009343   0.008937   0.000472
  115  C 11 YY    0.007488   0.006455   0.013095  -0.004860  -0.002418
  116  C 11 ZZ   -0.004747  -0.003812  -0.003751  -0.004077   0.001946
  117  C 11 XY    0.000000   0.000000   0.000000   0.000000   0.000000
  118  C 11 XZ    0.000000   0.000000   0.000000   0.000000   0.000000
  119  C 11 YZ    0.003701   0.002711  -0.004564  -0.005833   0.021510
  120  C 11  S   -0.197700  -0.236738  -0.209207   0.394975  -0.102751
  121  C 11  X    0.000000   0.000000   0.000000   0.000000   0.000000
  122  C 11  Y    0.039703   0.122742  -0.048839  -0.164043   0.086106
  123  C 11  Z   -0.026570  -0.042969  -0.018356   0.081848  -0.012234
  124  C 11 XX    0.002443  -0.009263   0.023827  -0.074879   0.007694
  125  C 11 YY   -0.075193  -0.005142  -0.152346   0.091712  -0.024276
  126  C 11 ZZ    0.072750   0.014405   0.128520  -0.016833   0.016582
  127  C 11 XY    0.000000   0.000000   0.000000   0.000000   0.000000
  128  C 11 XZ    0.000000   0.000000   0.000000   0.000000   0.000000
  129  C 11 YZ    0.010620  -0.073082  -0.012471   0.079507   0.027676
  130  C 12  S    0.110994  -0.095213   0.430480   0.454297   0.015217
  131  C 12  S    0.097084  -0.345640  -0.057862  -0.816960  -0.094927
  132  C 12  X    0.000000   0.000000   0.000000   0.000000   0.000000
  133  C 12  Y   -0.034192   0.041074   0.073718  -0.066480  -0.244141
  134  C 12  Z    0.019388  -0.017656   0.075136   0.084358   0.024952
  135  C 12  X    0.000000   0.000000   0.000000   0.000000   0.000000
  136  C 12  Y   -0.096223  -0.354185  -0.112822   0.227100  -0.197438
  137  C 12  Z    0.128106  -0.118109   0.143986  -0.219307  -0.016115
  138  C 12 XX   -0.002741   0.002643  -0.009343  -0.008937   0.000472
  139  C 12 YY    0.007488  -0.006454   0.013095   0.004860  -0.002418
  140  C 12 ZZ   -0.004747   0.003812  -0.003751   0.004077   0.001946
  141  C 12 XY    0.000000   0.000000   0.000000   0.000000   0.000000
  142  C 12 XZ    0.000000   0.000000   0.000000   0.000000   0.000000
  143  C 12 YZ   -0.003701   0.002711   0.004564  -0.005833  -0.021510
  144  C 12  S   -0.197703   0.236736  -0.209206  -0.394975  -0.102751
  145  C 12  X    0.000000   0.000000   0.000000   0.000000   0.000000
  146  C 12  Y   -0.039704   0.122742   0.048838  -0.164043  -0.086106
  147  C 12  Z   -0.026570   0.042968  -0.018356  -0.081848  -0.012234
  148  C 12 XX    0.002443   0.009263   0.023827   0.074879   0.007694
  149  C 12 YY   -0.075193   0.005141  -0.152346  -0.091712  -0.024276
  150  C 12 ZZ    0.072750  -0.014404   0.128520   0.016833   0.016582
  151  C 12 XY    0.000000   0.000000   0.000000   0.000000   0.000000
  152  C 12 XZ    0.000000   0.000000   0.000000   0.000000   0.000000
  153  C 12 YZ   -0.010619  -0.073082   0.012471   0.079506  -0.027676
  154  C 13  S    0.327091   0.326739   0.149786  -0.334421   0.442949
  155  C 13  S   -0.148054   0.154316  -0.031409  -0.498208  -0.407641
  156  C 13  X    0.000000   0.000000   0.000000   0.000000   0.000000
  157  C 13  Y    0.117777   0.121163  -0.142457   0.186797  -0.043522
  158  C 13  Z   -0.062134  -0.061890  -0.020679   0.040465  -0.003560
  159  C 13  X    0.000000   0.000000   0.000000   0.000000   0.000000
  160  C 13  Y    0.127193  -0.048459   0.116171   0.224232   0.108538
  161  C 13  Z    0.003443  -0.068294  -0.057778   0.154734   0.068561
  162  C 13 XX   -0.011963  -0.011966  -0.003325   0.008057  -0.008663
  163  C 13 YY    0.017194   0.017093   0.003152  -0.003738  -0.000345
  164  C 13 ZZ   -0.005231  -0.005127   0.000173  -0.004319   0.009008
  165  C 13 XY    0.000000   0.000000   0.000000   0.000000   0.000000
  166  C 13 XZ    0.000000   0.000000   0.000000   0.000000   0.000000
  167  C 13 YZ   -0.009876  -0.009605   0.010869  -0.015991   0.004657
  168  C 13  S    0.072466  -0.114212   0.169128   0.260323  -0.140895
  169  C 13  X    0.000000   0.000000   0.000000   0.000000   0.000000
  170  C 13  Y   -0.000524   0.034399  -0.060602  -0.024487   0.007752
  171  C 13  Z   -0.014497   0.013407  -0.056195  -0.020735   0.035475
  172  C 13 XX    0.004475  -0.005626  -0.003298   0.014048   0.036147
  173  C 13 YY   -0.056654  -0.030590  -0.052804  -0.005551  -0.041956
  174  C 13 ZZ    0.052178   0.036216   0.056102  -0.008497   0.005809
  175  C 13 XY    0.000000   0.000000   0.000000   0.000000   0.000000
  176  C 13 XZ    0.000000   0.000000   0.000000   0.000000   0.000000
  177  C 13 YZ   -0.015890   0.032206  -0.014408  -0.050141  -0.028194
  178  C 14  S    0.327095  -0.326734   0.149786   0.334421   0.442949
  179  C 14  S   -0.148052  -0.154318  -0.031409   0.498208  -0.407641
  180  C 14  X    0.000000   0.000000   0.000000   0.000000   0.000000
  181  C 14  Y   -0.117778   0.121161   0.142457   0.186797   0.043522
  182  C 14  Z   -0.062135   0.061889  -0.020679  -0.040465  -0.003560
  183  C 14  X    0.000000   0.000000   0.000000   0.000000   0.000000
  184  C 14  Y   -0.127193  -0.048461  -0.116171   0.224232  -0.108538
  185  C 14  Z    0.003442   0.068294  -0.057778  -0.154734   0.068561
  186  C 14 XX   -0.011963   0.011965  -0.003325  -0.008057  -0.008663
  187  C 14 YY    0.017195  -0.017093   0.003152   0.003738  -0.000345
  188  C 14 ZZ   -0.005231   0.005127   0.000173   0.004319   0.009008
  189  C 14 XY    0.000000   0.000000   0.000000   0.000000   0.000000
  190  C 14 XZ    0.000000   0.000000   0.000000   0.000000   0.000000
  191  C 14 YZ    0.009876  -0.009605  -0.010869  -0.015991  -0.004657
  192  C 14  S    0.072465   0.114213   0.169128  -0.260323  -0.140895
  193  C 14  X    0.000000   0.000000   0.000000   0.000000   0.000000
  194  C 14  Y    0.000524   0.034399   0.060602  -0.024487  -0.007752
  195  C 14  Z   -0.014496  -0.013407  -0.056195   0.020735   0.035475
  196  C 14 XX    0.004475   0.005626  -0.003298  -0.014048   0.036147
  197  C 14 YY   -0.056654   0.030589  -0.052804   0.005551  -0.041956
  198  C 14 ZZ    0.052179  -0.036215   0.056102   0.008497   0.005809
  199  C 14 XY    0.000000   0.000000   0.000000   0.000000   0.000000
  200  C 14 XZ    0.000000   0.000000   0.000000   0.000000   0.000000
  201  C 14 YZ    0.015889   0.032206   0.014408  -0.050141   0.028194
  202  N 15  S    0.529142   0.534899  -0.177988   0.227249  -0.202234
  203  N 15  S   -0.235174  -0.196363   0.042433  -0.112915   0.068297
  204  N 15  X    0.000000   0.000000   0.000000   0.000000   0.000000
  205  N 15  Y   -0.068382  -0.068171  -0.029959   0.101275  -0.229318
  206  N 15  Z    0.025566   0.025761  -0.001583  -0.014376   0.083498
  207  N 15  X    0.000000   0.000000   0.000000   0.000000   0.000000
  208  N 15  Y    0.039692   0.030340   0.015251  -0.008387   0.030252
  209  N 15  Z   -0.008258  -0.007432   0.008848  -0.011249  -0.010411
  210  N 15 XX   -0.009717  -0.009986   0.002731  -0.002853   0.001887
  211  N 15 YY    0.009375   0.009478   0.000551  -0.003582   0.007039
  212  N 15 ZZ    0.000342   0.000508  -0.003282   0.006434  -0.008926
  213  N 15 XY    0.000000   0.000000   0.000000   0.000000   0.000000
  214  N 15 XZ    0.000000   0.000000   0.000000   0.000000   0.000000
  215  N 15 YZ   -0.003961  -0.004024   0.000426   0.002598  -0.008440
  216  N 15  S   -0.099069  -0.087441   0.024355  -0.074241   0.059118
  217  N 15  X    0.000000   0.000000   0.000000   0.000000   0.000000
  218  N 15  Y    0.019834   0.011518   0.013848   0.005872   0.008677
  219  N 15  Z    0.006332   0.008259   0.018459  -0.021791  -0.001326
  220  N 15 XX    0.017102   0.018911  -0.006292   0.006129  -0.004533
  221  N 15 YY   -0.017463  -0.017364   0.001391  -0.000510  -0.002733
  222  N 15 ZZ    0.000361  -0.001547   0.004901  -0.005619   0.007266
  223  N 15 XY    0.000000   0.000000   0.000000   0.000000   0.000000
  224  N 15 XZ    0.000000   0.000000   0.000000   0.000000   0.000000
  225  N 15 YZ    0.002931   0.002491  -0.001994  -0.003963   0.003898
  226  N 16  S    0.529149  -0.534892  -0.177988  -0.227249  -0.202234
  227  N 16  S   -0.235177   0.196360   0.042433   0.112915   0.068297
  228  N 16  X    0.000000   0.000000   0.000000   0.000000   0.000000
  229  N 16  Y    0.068383  -0.068171   0.029959   0.101275   0.229319
  230  N 16  Z    0.025567  -0.025761  -0.001583   0.014376   0.083498
  231  N 16  X    0.000000   0.000000   0.000000   0.000000   0.000000
  232  N 16  Y   -0.039692   0.030340  -0.015251  -0.008387  -0.030252
  233  N 16  Z   -0.008258   0.007432   0.008848   0.011249  -0.010411
  234  N 16 XX   -0.009717   0.009986   0.002731   0.002853   0.001887
  235  N 16 YY    0.009375  -0.009478   0.000551   0.003582   0.007039
  236  N 16 ZZ    0.000342  -0.000508  -0.003282  -0.006434  -0.008926
  237  N 16 XY    0.000000   0.000000   0.000000   0.000000   0.000000
  238  N 16 XZ    0.000000   0.000000   0.000000   0.000000   0.000000
  239  N 16 YZ    0.003961  -0.004024  -0.000426   0.002598   0.008440
  240  N 16  S   -0.099070   0.087440   0.024355   0.074241   0.059118
  241  N 16  X    0.000000   0.000000   0.000000   0.000000   0.000000
  242  N 16  Y   -0.019834   0.011518  -0.013848   0.005872  -0.008677
  243  N 16  Z    0.006332  -0.008258   0.018459   0.021791  -0.001326
  244  N 16 XX    0.017102  -0.018911  -0.006292  -0.006129  -0.004533
  245  N 16 YY   -0.017463   0.017364   0.001391   0.000510  -0.002733
  246  N 16 ZZ    0.000361   0.001547   0.004901   0.005619   0.007266
  247  N 16 XY    0.000000   0.000000   0.000000   0.000000   0.000000
  248  N 16 XZ    0.000000   0.000000   0.000000   0.000000   0.000000
  249  N 16 YZ   -0.002931   0.002491   0.001994  -0.003963  -0.003898

                      6          7          8          9         10
                   -0.9874    -0.9571    -0.9094    -0.8807    -0.8589
                     A          A          A          A          A   
    1  H  1  S    0.000000  -0.199378   0.000000  -0.258380  -0.072149
    2  H  1  S    0.000000  -0.107806   0.000000  -0.069560  -0.043435
    3  H  1  X    0.000000   0.000000   0.000000   0.000000   0.000000
    4  H  1  Y   -0.003993   0.000000  -0.004632   0.000000   0.000000
    5  H  1  Z    0.000000  -0.016261   0.000000  -0.018217  -0.007112
    6  H  1  S    0.000000  -0.015027   0.000000  -0.059869   0.032815
    7  H  1  X    0.000000   0.000000   0.000000   0.000000   0.000000
    8  H  1  Y   -0.021192   0.000000  -0.033507   0.000000   0.000000
    9  H  1  Z    0.000000   0.024747   0.000000   0.016788   0.008298
   10  H  2  S    0.113099   0.163926  -0.033382   0.170585   0.010953
   11  H  2  S    0.030803   0.088361  -0.019111   0.039050  -0.031367
   12  H  2  X    0.000000   0.000000   0.000000   0.000000   0.000000
   13  H  2  Y    0.001869  -0.001900   0.002406   0.003560  -0.003701
   14  H  2  Z   -0.010688  -0.014566   0.002290  -0.013559  -0.001440
   15  H  2  S   -0.042791  -0.008249  -0.017386   0.018000  -0.007273
   16  H  2  X    0.000000   0.000000   0.000000   0.000000   0.000000
   17  H  2  Y    0.000377  -0.008391   0.007908   0.016453  -0.016861
   18  H  2  Z    0.005052   0.018601  -0.004149   0.013596  -0.005492
   19  H  3  S   -0.113099   0.163926   0.033382   0.170585   0.010953
   20  H  3  S   -0.030803   0.088361   0.019111   0.039050  -0.031367
   21  H  3  X    0.000000   0.000000   0.000000   0.000000   0.000000
   22  H  3  Y    0.001869   0.001900   0.002406  -0.003560   0.003701
   23  H  3  Z    0.010688  -0.014566  -0.002290  -0.013559  -0.001440
   24  H  3  S    0.042791  -0.008249   0.017386   0.018000  -0.007273
   25  H  3  X    0.000000   0.000000   0.000000   0.000000   0.000000
   26  H  3  Y    0.000377   0.008391   0.007908  -0.016453   0.016861
   27  H  3  Z   -0.005052   0.018601   0.004149   0.013596  -0.005492
   28  H  4  S   -0.171537  -0.163057   0.132823   0.005406   0.113723
   29  H  4  S   -0.036123  -0.072562   0.045024  -0.038397   0.029532
   30  H  4  X    0.000000   0.000000   0.000000   0.000000   0.000000
   31  H  4  Y    0.003592   0.002455   0.001675  -0.002562   0.006157
   32  H  4  Z   -0.015091  -0.012732   0.009487   0.000673   0.007936
   33  H  4  S    0.020656   0.021025   0.016386   0.014014   0.000471
   34  H  4  X    0.000000   0.000000   0.000000   0.000000   0.000000
   35  H  4  Y   -0.002299   0.010533  -0.004482  -0.011102   0.021263
   36  H  4  Z    0.010212   0.019120  -0.013809   0.005096  -0.010428
   37  H  5  S    0.171537  -0.163057  -0.132823   0.005406   0.113723
   38  H  5  S    0.036123  -0.072562  -0.045024  -0.038397   0.029532
   39  H  5  X    0.000000   0.000000   0.000000   0.000000   0.000000
   40  H  5  Y    0.003592  -0.002455   0.001675   0.002562  -0.006157
   41  H  5  Z    0.015091  -0.012732  -0.009487   0.000673   0.007936
   42  H  5  S   -0.020656   0.021025  -0.016386   0.014014   0.000471
   43  H  5  X    0.000000   0.000000   0.000000   0.000000   0.000000
   44  H  5  Y   -0.002299  -0.010533  -0.004482   0.011102  -0.021263
   45  H  5  Z   -0.010212   0.019120   0.013809   0.005096  -0.010428
   46  H  6  S    0.203354   0.160835  -0.112795  -0.208964   0.039309
   47  H  6  S   -0.006307  -0.009345   0.015273   0.006809   0.002541
   48  H  6  X    0.000000   0.000000   0.000000   0.000000   0.000000
   49  H  6  Y   -0.000759   0.004084  -0.009945  -0.004721  -0.008588
   50  H  6  Z   -0.018343  -0.013193   0.007733   0.015555  -0.003922
   51  H  6  S    0.008456   0.007222  -0.011040  -0.003611  -0.004819
   52  H  6  X    0.000000   0.000000   0.000000   0.000000   0.000000
   53  H  6  Y   -0.010019  -0.003505  -0.009252   0.001955  -0.016467
   54  H  6  Z    0.005535   0.002607   0.000073  -0.006429   0.000222
   55  H  7  S   -0.203354   0.160835   0.112795  -0.208964   0.039309
   56  H  7  S    0.006307  -0.009345  -0.015273   0.006809   0.002541
   57  H  7  X    0.000000   0.000000   0.000000   0.000000   0.000000
   58  H  7  Y   -0.000759  -0.004084  -0.009945   0.004721   0.008588
   59  H  7  Z    0.018343  -0.013193  -0.007733   0.015555  -0.003922
   60  H  7  S   -0.008456   0.007222   0.011040  -0.003611  -0.004819
   61  H  7  X    0.000000   0.000000   0.000000   0.000000   0.000000
   62  H  7  Y   -0.010019   0.003505  -0.009252  -0.001955   0.016467
   63  H  7  Z   -0.005535   0.002607  -0.000073  -0.006429   0.000222
   64  H  8  S    0.068511  -0.102706   0.279623   0.146599   0.227154
   65  H  8  S   -0.016756   0.014377  -0.022555  -0.016676   0.011094
   66  H  8  X    0.000000   0.000000   0.000000   0.000000   0.000000
   67  H  8  Y    0.000290  -0.009471   0.017588   0.012066   0.009871
   68  H  8  Z    0.008258  -0.002339   0.013049   0.002727   0.014050
   69  H  8  S   -0.004909  -0.009703   0.011624   0.004827   0.005547
   70  H  8  X    0.000000   0.000000   0.000000   0.000000   0.000000
   71  H  8  Y   -0.001866  -0.005471  -0.004396   0.003755  -0.021757
   72  H  8  Z    0.004630   0.003488  -0.000802  -0.004452   0.001692
   73  H  9  S   -0.068511  -0.102706  -0.279623   0.146599   0.227154
   74  H  9  S    0.016756   0.014377   0.022555  -0.016676   0.011094
   75  H  9  X    0.000000   0.000000   0.000000   0.000000   0.000000
   76  H  9  Y    0.000290   0.009471   0.017588  -0.012066  -0.009871
   77  H  9  Z   -0.008258  -0.002339  -0.013049   0.002727   0.014050
   78  H  9  S    0.004909  -0.009703  -0.011624   0.004827   0.005547
   79  H  9  X    0.000000   0.000000   0.000000   0.000000   0.000000
   80  H  9  Y   -0.001866   0.005471  -0.004396  -0.003755   0.021757
   81  H  9  Z   -0.004630   0.003488   0.000802  -0.004452   0.001692
   82  C 10  S    0.000000  -0.288425   0.000000  -0.120328  -0.245068
   83  C 10  S    0.000000   0.479695   0.000000   0.610290   0.481749
   84  C 10  X    0.000000   0.000000   0.000000   0.000000   0.000000
   85  C 10  Y    0.219676   0.000000   0.227375   0.000000   0.000000
   86  C 10  Z    0.000000  -0.171432   0.000000  -0.353299   0.019450
   87  C 10  X    0.000000   0.000000   0.000000   0.000000   0.000000
   88  C 10  Y    0.147973   0.000000  -0.225555   0.000000   0.000000
   89  C 10  Z    0.000000   0.012631   0.000000   0.000138  -0.164470
   90  C 10 XX    0.000000   0.005272   0.000000   0.003159   0.002518
   91  C 10 YY    0.000000   0.005286   0.000000   0.004995   0.005830
   92  C 10 ZZ    0.000000  -0.010558   0.000000  -0.008153  -0.008348
   93  C 10 XY    0.000000   0.000000   0.000000   0.000000   0.000000
   94  C 10 XZ    0.000000   0.000000   0.000000   0.000000   0.000000
   95  C 10 YZ   -0.018139   0.000000  -0.011812   0.000000   0.000000
   96  C 10  S    0.000000   0.177816   0.000000  -0.324184   0.191359
   97  C 10  X    0.000000   0.000000   0.000000   0.000000   0.000000
   98  C 10  Y    0.111988   0.000000   0.049897   0.000000   0.000000
   99  C 10  Z    0.000000  -0.011142   0.000000   0.091065  -0.056589
  100  C 10 XX    0.000000  -0.044039   0.000000  -0.028917  -0.043526
  101  C 10 YY    0.000000   0.002305   0.000000   0.005164   0.004574
  102  C 10 ZZ    0.000000   0.041734   0.000000   0.023753   0.038952
  103  C 10 XY    0.000000   0.000000   0.000000   0.000000   0.000000
  104  C 10 XZ    0.000000   0.000000   0.000000   0.000000   0.000000
  105  C 10 YZ   -0.019603   0.000000   0.093920   0.000000   0.000000
  106  C 11  S    0.300834   0.240203   0.071196   0.146541   0.119930
  107  C 11  S   -0.632246  -0.115138   0.093252  -0.300279  -0.060143
  108  C 11  X    0.000000   0.000000   0.000000   0.000000   0.000000
  109  C 11  Y   -0.061142   0.127752  -0.138574  -0.130563   0.185004
  110  C 11  Z   -0.027355  -0.135327   0.093906  -0.202694   0.065579
  111  C 11  X    0.000000   0.000000   0.000000   0.000000   0.000000
  112  C 11  Y   -0.014817   0.120785  -0.109759   0.142157   0.115174
  113  C 11  Z   -0.132959   0.106234  -0.038998   0.078391  -0.008688
  114  C 11 XX   -0.004537  -0.003846   0.000132  -0.001662  -0.000669
  115  C 11 YY   -0.001713   0.000370  -0.004133   0.000521  -0.007229
  116  C 11 ZZ    0.006250   0.003476   0.004001   0.001141   0.007898
  117  C 11 XY    0.000000   0.000000   0.000000   0.000000   0.000000
  118  C 11 XZ    0.000000   0.000000   0.000000   0.000000   0.000000
  119  C 11 YZ   -0.007389   0.009498  -0.006761  -0.004257   0.016735
  120  C 11  S   -0.321591  -0.180809  -0.196214   0.130481  -0.168065
  121  C 11  X    0.000000   0.000000   0.000000   0.000000   0.000000
  122  C 11  Y   -0.058596   0.006419  -0.070120  -0.064884   0.019673
  123  C 11  Z   -0.080950  -0.023346  -0.054773   0.033534  -0.020000
  124  C 11 XX    0.055980   0.022748   0.001216   0.018099   0.012193
  125  C 11 YY   -0.045211   0.006431  -0.003530  -0.035392  -0.047050
  126  C 11 ZZ   -0.010769  -0.029179   0.002314   0.017294   0.034857
  127  C 11 XY    0.000000   0.000000   0.000000   0.000000   0.000000
  128  C 11 XZ    0.000000   0.000000   0.000000   0.000000   0.000000
  129  C 11 YZ   -0.016884   0.015240  -0.007798   0.052305  -0.007989
  130  C 12  S   -0.300834   0.240203  -0.071196   0.146541   0.119929
  131  C 12  S    0.632246  -0.115138  -0.093252  -0.300279  -0.060143
  132  C 12  X    0.000000   0.000000   0.000000   0.000000   0.000000
  133  C 12  Y   -0.061142  -0.127752  -0.138574   0.130563  -0.185004
  134  C 12  Z    0.027355  -0.135327  -0.093906  -0.202694   0.065579
  135  C 12  X    0.000000   0.000000   0.000000   0.000000   0.000000
  136  C 12  Y   -0.014816  -0.120785  -0.109759  -0.142157  -0.115174
  137  C 12  Z    0.132959   0.106234   0.038998   0.078391  -0.008688
  138  C 12 XX    0.004537  -0.003846  -0.000132  -0.001662  -0.000669
  139  C 12 YY    0.001713   0.000370   0.004133   0.000521  -0.007229
  140  C 12 ZZ   -0.006250   0.003476  -0.004001   0.001141   0.007898
  141  C 12 XY    0.000000   0.000000   0.000000   0.000000   0.000000
  142  C 12 XZ    0.000000   0.000000   0.000000   0.000000   0.000000
  143  C 12 YZ   -0.007389  -0.009498  -0.006761   0.004257  -0.016735
  144  C 12  S    0.321591  -0.180809   0.196214   0.130481  -0.168065
  145  C 12  X    0.000000   0.000000   0.000000   0.000000   0.000000
  146  C 12  Y   -0.058596  -0.006419  -0.070120   0.064884  -0.019673
  147  C 12  Z    0.080951  -0.023346   0.054773   0.033534  -0.020000
  148  C 12 XX   -0.055981   0.022748  -0.001216   0.018099   0.012193
  149  C 12 YY    0.045211   0.006431   0.003530  -0.035392  -0.047050
  150  C 12 ZZ    0.010769  -0.029179  -0.002314   0.017294   0.034858
  151  C 12 XY    0.000000   0.000000   0.000000   0.000000   0.000000
  152  C 12 XZ    0.000000   0.000000   0.000000   0.000000   0.000000
  153  C 12 YZ   -0.016884  -0.015240  -0.007798  -0.052305   0.007989
  154  C 13  S   -0.314895  -0.083076  -0.053753  -0.042058   0.033651
  155  C 13  S    0.476305  -0.073346   0.046498  -0.004416  -0.198550
  156  C 13  X    0.000000   0.000000   0.000000   0.000000   0.000000
  157  C 13  Y   -0.184762  -0.118965  -0.109747   0.147609  -0.387952
  158  C 13  Z   -0.142018  -0.246650   0.252054   0.057377   0.134308
  159  C 13  X    0.000000   0.000000   0.000000   0.000000   0.000000
  160  C 13  Y   -0.079631   0.102725  -0.037885  -0.026620   0.128464
  161  C 13  Z   -0.014877   0.172137  -0.141352  -0.035223  -0.021196
  162  C 13 XX    0.006744   0.002983   0.000928  -0.000604   0.002458
  163  C 13 YY   -0.002348  -0.002956  -0.001631   0.006498  -0.014377
  164  C 13 ZZ   -0.004397  -0.000026   0.000703  -0.005894   0.011918
  165  C 13 XY    0.000000   0.000000   0.000000   0.000000   0.000000
  166  C 13 XZ    0.000000   0.000000   0.000000   0.000000   0.000000
  167  C 13 YZ    0.009644   0.004970   0.012636   0.003067   0.025138
  168  C 13  S    0.233892   0.091754   0.183772   0.022899   0.040382
  169  C 13  X    0.000000   0.000000   0.000000   0.000000   0.000000
  170  C 13  Y   -0.015714  -0.028757  -0.003577   0.002600  -0.012684
  171  C 13  Z   -0.043690  -0.016197  -0.041521  -0.017550  -0.008160
[...]
             25  H  3  X     -0.00210     0.04325
             26  H  3  Y     -0.03601     0.02528
             27  H  3  Z     -0.00907     0.05395
             28  H  4  S      0.94169     0.48780
             29  H  4  S      0.13240     0.17137
             30  H  4  X      0.00712     0.01744
             31  H  4  Y      0.00543     0.01636
             32  H  4  Z      0.02614     0.04822
             33  H  4  S      0.00580     0.01674
             34  H  4  X     -0.00629     0.02672
             35  H  4  Y     -0.02141     0.02590
             36  H  4  Z     -0.01273     0.05374
             37  H  5  S      0.94169     0.48780
             38  H  5  S      0.13240     0.17137
             39  H  5  X      0.00712     0.01744
             40  H  5  Y      0.00543     0.01636
             41  H  5  Z      0.02614     0.04822
             42  H  5  S      0.00580     0.01674
             43  H  5  X     -0.00629     0.02672
             44  H  5  Y     -0.02141     0.02590
             45  H  5  Z     -0.01273     0.05374
             46  H  6  S      0.87960     0.40618
             47  H  6  S     -0.02645     0.13027
             48  H  6  X      0.02182     0.04775
             49  H  6  Y      0.01052     0.02724
             50  H  6  Z      0.03420     0.06129
             51  H  6  S      0.00175     0.01377
             52  H  6  X      0.00593     0.04744
             53  H  6  Y     -0.01845     0.02833
             54  H  6  Z      0.00297     0.06425
             55  H  7  S      0.87960     0.40618
             56  H  7  S     -0.02645     0.13027
             57  H  7  X      0.02182     0.04775
             58  H  7  Y      0.01052     0.02724
             59  H  7  Z      0.03420     0.06129
             60  H  7  S      0.00175     0.01377
             61  H  7  X      0.00593     0.04744
             62  H  7  Y     -0.01845     0.02833
             63  H  7  Z      0.00297     0.06425
             64  H  8  S      0.87688     0.40257
             65  H  8  S     -0.00383     0.13107
             66  H  8  X      0.02313     0.04992
             67  H  8  Y      0.02618     0.04658
             68  H  8  Z      0.01828     0.04023
             69  H  8  S      0.00039     0.01299
             70  H  8  X      0.00786     0.05096
             71  H  8  Y      0.00619     0.04773
             72  H  8  Z     -0.00180     0.04214
             73  H  9  S      0.87688     0.40257
             74  H  9  S     -0.00383     0.13107
             75  H  9  X      0.02313     0.04992
             76  H  9  Y      0.02618     0.04658
             77  H  9  Z      0.01828     0.04023
             78  H  9  S      0.00039     0.01299
             79  H  9  X      0.00786     0.05096
             80  H  9  Y      0.00619     0.04773
             81  H  9  Z     -0.00180     0.04214
             82  C 10  S      1.55615     0.32702
             83  C 10  S     -0.64048     0.11066
             84  C 10  X      0.73369     0.43186
             85  C 10  Y      1.21234     0.76374
             86  C 10  Z      1.23715     0.79796
             87  C 10  X     -0.03649     0.14303
             88  C 10  Y     -0.28897     0.16202
             89  C 10  Z     -0.01576     0.19194
             90  C 10 XX      0.02786     0.04611
             91  C 10 YY      0.01480     0.17290
             92  C 10 ZZ      0.02948     0.14803
             93  C 10 XY      0.00359     0.04846
             94  C 10 XZ      0.02482     0.00609
             95  C 10 YZ      0.00000     0.05249
             96  C 10  S     -0.02663     0.03804
             97  C 10  X     -0.02677     0.01670
             98  C 10  Y      0.41034     0.04014
             99  C 10  Z     -0.06462     0.02239
            100  C 10 XX      0.02490     0.00080
            101  C 10 YY     -0.00829     0.11194
            102  C 10 ZZ      0.06590     0.09342
            103  C 10 XY     -0.00235     0.15662
            104  C 10 XZ      0.11162     0.01347
            105  C 10 YZ      0.00000     0.11993
            106  C 11  S      1.48700     0.31108
            107  C 11  S     -1.10496     0.11159
            108  C 11  X      1.15336     0.71194
            109  C 11  Y      1.11413     0.71347
            110  C 11  Z      1.18021     0.76950
            111  C 11  X     -0.01804     0.19493
            112  C 11  Y     -0.23636     0.16114
            113  C 11  Z     -0.22324     0.19782
            114  C 11 XX      0.02353     0.04477
            115  C 11 YY      0.01210     0.16725
            116  C 11 ZZ      0.00651     0.14744
            117  C 11 XY      0.00578     0.01109
            118  C 11 XZ      0.02835     0.00780
            119  C 11 YZ      0.00000     0.06378
            120  C 11  S     -0.61370     0.03777
            121  C 11  X     -0.00240     0.01730
            122  C 11  Y      0.25615     0.03523
            123  C 11  Z     -0.02806     0.02271
            124  C 11 XX      0.04188     0.00035
            125  C 11 YY     -0.00744     0.09478
            126  C 11 ZZ      0.01854     0.09719
            127  C 11 XY     -0.00144     0.05161
            128  C 11 XZ      0.06369     0.01578
            129  C 11 YZ      0.00000     0.11497
            130  C 12  S      1.48700     0.31108
            131  C 12  S     -1.10496     0.11159
            132  C 12  X      1.15336     0.71194
            133  C 12  Y      1.11413     0.71347
            134  C 12  Z      1.18021     0.76950
            135  C 12  X     -0.01804     0.19493
            136  C 12  Y     -0.23636     0.16114
            137  C 12  Z     -0.22324     0.19782
            138  C 12 XX      0.02353     0.04477
            139  C 12 YY      0.01210     0.16725
            140  C 12 ZZ      0.00651     0.14744
            141  C 12 XY      0.00578     0.01109
            142  C 12 XZ      0.02835     0.00780
            143  C 12 YZ      0.00000     0.06378
            144  C 12  S     -0.61369     0.03777
            145  C 12  X     -0.00240     0.01730
            146  C 12  Y      0.25615     0.03523
            147  C 12  Z     -0.02806     0.02271
            148  C 12 XX      0.04188     0.00035
            149  C 12 YY     -0.00744     0.09478
            150  C 12 ZZ      0.01854     0.09719
            151  C 12 XY     -0.00144     0.05161
            152  C 12 XZ      0.06369     0.01578
            153  C 12 YZ      0.00000     0.11497
            154  C 13  S      1.52594     0.31556
            155  C 13  S     -0.14883     0.10908
            156  C 13  X      0.74230     0.43220
            157  C 13  Y      1.12318     0.69118
            158  C 13  Z      1.25540     0.79850
            159  C 13  X     -0.08565     0.12947
            160  C 13  Y      0.06883     0.14939
            161  C 13  Z     -0.23137     0.18071
            162  C 13 XX      0.03181     0.04303
            163  C 13 YY      0.02028     0.17712
            164  C 13 ZZ      0.04117     0.15422
            165  C 13 XY      0.00512     0.06976
            166  C 13 XZ      0.03092     0.00790
            167  C 13 YZ      0.00000     0.06410
            168  C 13  S     -0.06396     0.03649
            169  C 13  X      0.00198     0.01512
            170  C 13  Y      0.06575     0.03080
            171  C 13  Z      0.02283     0.01900
            172  C 13 XX      0.00965     0.00063
            173  C 13 YY      0.01731     0.12186
            174  C 13 ZZ      0.05427     0.09224
            175  C 13 XY     -0.00552     0.15086
            176  C 13 XZ      0.05436     0.01432
            177  C 13 YZ      0.00000     0.11594
            178  C 14  S      1.52594     0.31556
            179  C 14  S     -0.14883     0.10908
            180  C 14  X      0.74230     0.43220
            181  C 14  Y      1.12318     0.69118
            182  C 14  Z      1.25540     0.79850
            183  C 14  X     -0.08565     0.12947
            184  C 14  Y      0.06883     0.14939
            185  C 14  Z     -0.23137     0.18071
            186  C 14 XX      0.03181     0.04303
            187  C 14 YY      0.02028     0.17712
            188  C 14 ZZ      0.04117     0.15422
            189  C 14 XY      0.00512     0.06976
            190  C 14 XZ      0.03092     0.00790
            191  C 14 YZ      0.00000     0.06410
            192  C 14  S     -0.06396     0.03649
            193  C 14  X      0.00198     0.01512
            194  C 14  Y      0.06575     0.03080
            195  C 14  Z      0.02283     0.01900
            196  C 14 XX      0.00965     0.00063
            197  C 14 YY      0.01731     0.12186
            198  C 14 ZZ      0.05427     0.09224
            199  C 14 XY     -0.00552     0.15086
            200  C 14 XZ      0.05436     0.01432
            201  C 14 YZ      0.00000     0.11594
            202  N 15  S      1.62872     0.42257
            203  N 15  S     -0.59614     0.15243
            204  N 15  X      1.53823     1.05748
            205  N 15  Y      1.28818     0.88383
            206  N 15  Z      1.32933     0.91851
            207  N 15  X      0.07860     0.30051
            208  N 15  Y     -0.21845     0.27391
            209  N 15  Z     -0.15343     0.29793
            210  N 15 XX      0.00984     0.08087
            211  N 15 YY      0.00609     0.15723
            212  N 15 ZZ      0.00342     0.14583
            213  N 15 XY      0.00050     0.00457
            214  N 15 XZ      0.01274     0.00072
            215  N 15 YZ      0.00000     0.02802
            216  N 15  S     -0.17498     0.04208
            217  N 15  X     -0.00388     0.02272
            218  N 15  Y     -0.02380     0.03523
            219  N 15  Z     -0.04485     0.02403
            220  N 15 XX     -0.00499     0.00013
            221  N 15 YY     -0.00158     0.07266
            222  N 15 ZZ      0.01002     0.05656
            223  N 15 XY      0.00097     0.03268
            224  N 15 XZ     -0.00367     0.00421
            225  N 15 YZ      0.00000     0.10136
            226  N 16  S      1.62872     0.42257
            227  N 16  S     -0.59614     0.15243
            228  N 16  X      1.53823     1.05748
            229  N 16  Y      1.28818     0.88383
            230  N 16  Z      1.32933     0.91851
            231  N 16  X      0.07860     0.30051
            232  N 16  Y     -0.21845     0.27391
            233  N 16  Z     -0.15343     0.29793
            234  N 16 XX      0.00984     0.08087
            235  N 16 YY      0.00609     0.15723
            236  N 16 ZZ      0.00342     0.14583
            237  N 16 XY      0.00050     0.00457
            238  N 16 XZ      0.01274     0.00072
            239  N 16 YZ      0.00000     0.02802
            240  N 16  S     -0.17498     0.04208
            241  N 16  X     -0.00388     0.02272
            242  N 16  Y     -0.02380     0.03523
            243  N 16  Z     -0.04485     0.02403
            244  N 16 XX     -0.00499     0.00013
            245  N 16 YY     -0.00158     0.07266
            246  N 16 ZZ      0.01002     0.05656
            247  N 16 XY      0.00097     0.03268
            248  N 16 XZ     -0.00367     0.00421
            249  N 16 YZ      0.00000     0.10136

          ----- MULLIKEN ATOMIC OVERLAP POPULATIONS -----
          (OFF-DIAGONAL ELEMENTS NEED TO BE MULTIPLIED BY 2)

             1           2           3           4           5

    1    0.9709969
    2   -0.0153248   0.8677923
    3   -0.0153248  -0.0164394   0.8677923
    4   -0.0135587  -0.0037890   0.0013631   0.9233841
    5   -0.0135588   0.0013631  -0.0037890  -0.0003623   0.9233840
    6   -0.0009346  -0.0076204   0.0008270   0.0099468   0.0000710
    7   -0.0009346   0.0008270  -0.0076204   0.0000710   0.0099468
    8    0.0018710  -0.0028971  -0.0000780   0.0018507  -0.0000417
    9    0.0018710  -0.0000780  -0.0028971  -0.0000417   0.0018507
   10   -0.2324052   0.1002483   0.1002484  -0.0959245  -0.0959246
   11    0.1378394   0.0783456  -0.0972920   0.2870877  -0.0041060
   12    0.1378394  -0.0972919   0.0783455  -0.0041060   0.2870879
   13    0.0123137   0.0905039   0.0265024  -0.0140532  -0.0056552
   14    0.0123138   0.0265024   0.0905038  -0.0056552  -0.0140532
   15    0.0005958  -0.0009850   0.0000434  -0.0084352   0.0003643
   16    0.0005958   0.0000434  -0.0009850   0.0003643  -0.0084352

             6           7           8           9          10

    6    0.5802699
    7   -0.0000038   0.5802699
    8   -0.0277028   0.0000044   0.5852807
    9    0.0000044  -0.0277028  -0.0000019   0.5852807
   10   -0.0036557  -0.0036557  -0.0022308  -0.0022308   7.8774033
   11    0.0257421   0.0053285  -0.0040612  -0.0007747  -1.9571644
   12    0.0053285   0.0257421  -0.0007747  -0.0040612  -1.9571652
   13   -0.0267547  -0.0005785   0.0057256  -0.0000913   0.2885588
   14   -0.0005785  -0.0267546  -0.0000913   0.0057256   0.2885590
   15    0.3569358   0.0000107   0.3964146   0.0000173   0.0188153
   16    0.0000107   0.3569358   0.0000173   0.3964146   0.0188153

            11          12          13          14          15

   11    7.3480241
   12   -1.0198607   7.3480245
   13   -2.0546519   0.3730108   5.4471533
   14    0.3730107  -2.0546515  -0.0055177   5.4471528
   15    0.0138630   0.0242875   0.3988461   0.0004382   3.4796461
   16    0.0242875   0.0138631   0.0004382   0.3988461   0.0000183

            16

   16    3.4796461

          TOTAL MULLIKEN AND LOWDIN ATOMIC POPULATIONS
       ATOM         MULL.POP.    CHARGE          LOW.POP.     CHARGE
    1 H             0.984195    0.015805         0.880735    0.119265
    2 H             1.021200   -0.021200         0.899924    0.100076
    3 H             1.021200   -0.021200         0.899924    0.100076
    4 H             1.078142   -0.078142         0.864282    0.135718
    5 H             1.078142   -0.078142         0.864282    0.135718
    6 H             0.911886    0.088114         0.826531    0.173469
    7 H             0.911886    0.088114         0.826531    0.173469
    8 H             0.953285    0.046715         0.824179    0.175821
    9 H             0.953285    0.046715         0.824179    0.175821
   10 C             4.342291   -0.342291         4.015763   -0.015763
   11 C             3.155618    0.844382         4.101290   -0.101290
   12 C             3.155618    0.844382         4.101290   -0.101290
   13 C             4.535750   -0.535750         3.919472    0.080528
   14 C             4.535750   -0.535750         3.919472    0.080528
   15 N             4.680876    0.319124         5.116073   -0.116073
   16 N             4.680876    0.319124         5.116073   -0.116073

          MULLIKEN SPHERICAL HARMONIC POPULATIONS
       ATOM           S       P       D      F      G      H      I    TOTAL
    1 H             1.02   -0.04    0.00   0.00   0.00   0.00   0.00    0.98
    2 H             1.02    0.00    0.00   0.00   0.00   0.00   0.00    1.02
    3 H             1.02    0.00    0.00   0.00   0.00   0.00   0.00    1.02
    4 H             1.08    0.00    0.00   0.00   0.00   0.00   0.00    1.08
    5 H             1.08    0.00    0.00   0.00   0.00   0.00   0.00    1.08
    6 H             0.85    0.06    0.00   0.00   0.00   0.00   0.00    0.91
    7 H             0.85    0.06    0.00   0.00   0.00   0.00   0.00    0.91
    8 H             0.87    0.08    0.00   0.00   0.00   0.00   0.00    0.95
    9 H             0.87    0.08    0.00   0.00   0.00   0.00   0.00    0.95
   10 C             0.89    3.16    0.29   0.00   0.00   0.00   0.00    4.34
   11 C            -0.23    3.20    0.19   0.00   0.00   0.00   0.00    3.16
   12 C            -0.23    3.20    0.19   0.00   0.00   0.00   0.00    3.16
   13 C             1.31    2.96    0.26   0.00   0.00   0.00   0.00    4.54
   14 C             1.31    2.96    0.26   0.00   0.00   0.00   0.00    4.54
   15 N             0.86    3.79    0.03   0.00   0.00   0.00   0.00    4.68
   16 N             0.86    3.79    0.03   0.00   0.00   0.00   0.00    4.68

          -------------------------------
          BOND ORDER AND VALENCE ANALYSIS     BOND ORDER THRESHOLD=0.050
          -------------------------------

                   BOND                       BOND                       BOND
  ATOM PAIR DIST  ORDER      ATOM PAIR DIST  ORDER      ATOM PAIR DIST  ORDER
    1  10  1.088  0.551        1  11  2.117  0.165        1  12  2.117  0.165
    2  10  2.145  0.287        2  11  1.085  0.393        2  12  2.744 -0.052
    2  13  2.137  0.181        3  10  2.145  0.287        3  11  2.744 -0.052
    3  12  1.085  0.393        3  14  2.137  0.181        4  11  2.131  0.176
    4  13  1.085  0.688        5  12  2.131  0.176        5  14  1.085  0.688
    6  13  2.035  0.060        6  15  1.007  0.939        7  14  2.035  0.060
    7  16  1.007  0.939        8  13  2.029  0.071        8  15  1.005  0.994
    9  14  2.029  0.071        9  16  1.005  0.994       10  11  1.386  2.744
   10  12  1.386  2.744       10  13  2.396  0.943       10  14  2.396  0.943
   11  12  2.466  1.197       11  13  1.379  1.965       11  14  3.703 -1.043
   11  15  2.399  0.084       12  13  3.703 -1.043       12  14  1.379  1.965
   12  16  2.399  0.084       13  14  4.788  0.887       13  15  1.318  1.596
   13  16  6.032  0.066       14  15  6.032  0.066       14  16  1.318  1.596

                       TOTAL       BONDED        FREE
      ATOM            VALENCE     VALENCE     VALENCE
    1 H                 0.831       0.831       0.000
    2 H                 0.873       0.873       0.000
    3 H                 0.873       0.873       0.000
    4 H                 0.924       0.924       0.000
    5 H                 0.924       0.924       0.000
    6 H                 1.034       1.034       0.000
    7 H                 1.034       1.034       0.000
    8 H                 1.094       1.094       0.000
    9 H                 1.094       1.094       0.000
   10 C                 8.435       8.435       0.000
   11 C                 5.668       5.668       0.000
   12 C                 5.668       5.668       0.000
   13 C                 5.443       5.443       0.000
   14 C                 5.443       5.443       0.000
   15 N                 3.624       3.624       0.000
   16 N                 3.624       3.624       0.000

          ---------------------
          ELECTROSTATIC MOMENTS
          ---------------------

 POINT   1           X           Y           Z (BOHR)    CHARGE
                 0.000000    0.000000   -0.002041        1.00 (A.U.)
         DX          DY          DZ         /D/  (DEBYE)
     0.000000    0.000000    0.898106    0.898106
 ...... END OF PROPERTY EVALUATION ......
 ON NODE 0, STEP CPU TIME =     0.16 TOTAL CPU TIME =      184.2 (    3.1 MIN)
 TOTAL WALL CLOCK TIME=      200.0 SECONDS, CPU UTILIZATION IS  92.12%
                553707  WORDS OF DYNAMIC MEMORY USED
 EXECUTION OF GAMESS TERMINATED NORMALLY Tue Sep 26 15:08:41 2017
 DDI: 1128 bytes (0.0 MB / 0 MWords) used by master data server.

 ----------------------------------------
 CPU timing information for all processes
 ========================================
 0: 183.935495 + 0.312019 = 184.247514
 1: 186.083629 + 0.136008 = 186.219637
 2: 184.307518 + 0.168010 = 184.475528
 3: 184.487529 + 0.176011 = 184.663540
 4: 185.803612 + 0.088005 = 185.891617
 5: 184.963559 + 0.104006 = 185.067565
 6: 185.523594 + 0.152009 = 185.675603
 7: 184.887554 + 0.124007 = 185.011561
 ----------------------------------------
 ddikick.x: exited gracefully.
----- accounting info -----
Tue Sep 26 15:08:44 CEST 2017
Files used on the master node lpqlx139 were:
-rw-r--r-- 1 scemama scemama   968152 Sep 26 15:08 /dev/shm//gamess/C5.dat
-rw-r--r-- 1 scemama scemama     1528 Sep 26 15:05 /dev/shm//gamess/C5.F05
-rw-r--r-- 1 scemama scemama 21464320 Sep 26 15:08 /dev/shm//gamess/C5.F10
0.084u 0.012s 3:22.33 0.0%	0+0k 0+0io 0pf+0w
