----- GAMESS execution script -----
This job is running on host lpqlx139
under operating system Linux at Tue Sep 26 15:10:48 CEST 2017
Available scratch disk space (Kbyte units) at beginning of the job is
Filesystem     1K-blocks    Used Available Use% Mounted on
tmpfs            6592140 2721476   3870664  42% /run/shm

 Distributed Data Interface kickoff program.
 Initiating 8 compute processes on 1 nodes to run the following command:
 /usr/local/gamess/gamess.01.x C7 

          ******************************************************
          *         GAMESS VERSION = 22 FEB 2006 (R5)          *
          *             FROM IOWA STATE UNIVERSITY             *
          * M.W.SCHMIDT, K.K.BALDRIDGE, J.A.BOATZ, S.T.ELBERT, *
          *   M.S.GORDON, J.H.JENSEN, S.KOSEKI, N.MATSUNAGA,   *
          *          K.A.NGUYEN, S.J.SU, T.L.WINDUS,           *
          *       TOGETHER WITH M.DUPUIS, J.A.MONTGOMERY       *
          *         J.COMPUT.CHEM.  14, 1347-1363(1993)        *
          ***************** AMD 64 BIT VERSION *****************

     SINCE 1993, STUDENTS AND POSTDOCS WORKING AT IOWA STATE UNIVERSITY
     AND ALSO IN THEIR VARIOUS JOBS AFTER LEAVING ISU HAVE MADE IMPORTANT
     CONTRIBUTIONS TO THE CODE:
     IVANA ADAMOVIC, CHRISTINE AIKENS, YURI ALEXEEV, POOJA ARORA, ROB BELL,
     PRADIPTA BANDYOPADHYAY, BRETT BODE, GALINA CHABAN, WEI CHEN,
     CHEOL HO CHOI, PAUL DAY, TIM DUDLEY, DMITRI FEDOROV, GRAHAM FLETCHER,
     MARK FREITAG, KURT GLAESEMANN, GRANT MERRILL, TAKESHI NAGATA,
     HEATHER NETZLOFF, BOSILJKA NJEGIC, RYAN OLSON, MIKE PAK, JIM SHOEMAKER,
     LYUDMILA SLIPCHENKO, JIE SONG, TETSUYA TAKETSUGU, SIMON WEBB.

     ADDITIONAL CODE HAS BEEN PROVIDED BY COLLABORATORS IN OTHER GROUPS:
     IOWA STATE UNIVERSITY: JOE IVANIC, KLAUS RUEDENBERG
     UNIVERSITY OF TOKYO: KIMIHIKO HIRAO, HARUYUKI NAKANO, TAKAHITO
          NAKAJIMA, TAKAO TSUNEDA, MUNEAKI KAMIYA, SUSUMU YANAGISAWA,
          KIYOSHI YAGI
     UNIVERSITY OF SOUTHERN DENMARK: FRANK JENSEN
     UNIVERSITY OF IOWA: VISVALDAS KAIRYS, HUI LI
     NATIONAL INST. OF STANDARDS AND TECHNOLOGY: WALT STEVENS, DAVID GARMER
     UNIVERSITY OF PISA: BENEDETTA MENNUCCI, JACOPO TOMASI
     UNIVERSITY OF MEMPHIS: HENRY KURTZ, PRAKASHAN KORAMBATH
     UNIVERSITY OF ALBERTA: MARIUSZ KLOBUKOWSKI
     UNIVERSITY OF NEW ENGLAND: MARK SPACKMAN
     MIE UNIVERSITY: HIROAKI UMEDA
     MICHIGAN STATE UNIVERSITY:
          KAROL KOWALSKI, MARTA WLOCH, PIOTR PIECUCH
     UNIVERSITY OF SILESIA: MONIKA MUSIAL, STANISLAW KUCHARSKI
     FACULTES UNIVERSITAIRES NOTRE-DAME DE LA PAIX:
          OLIVIER QUINET, BENOIT CHAMPAGNE
     UNIVERSITY OF CALIFORNIA - SANTA BARBARA: BERNARD KIRTMAN
     INSTITUTE FOR MOLECULAR SCIENCE: KAZUYA ISHIMURA AND SHIGERU NAGASE
     UNIVERSITY OF NOTRE DAME: DAN CHIPMAN
     KYUSHU UNIVERSITY:
          FENG LONG GU, JACEK KORCHOWIEC, MARCIN MAKOWSKI, AND YURIKO AOKI
     PENNSYLVANIA STATE UNIVERSITY:
          TZVETELIN IORDANOV, CHET SWALINA, SHARON HAMMES-SCHIFFER


 PARALLEL VERSION RUNNING ON     8 PROCESSORS IN     1 NODES.

 EXECUTION OF GAMESS BEGUN Tue Sep 26 15:10:48 2017

            ECHO OF THE FIRST FEW INPUT CARDS -
 INPUT CARD> $CONTRL                                                                        
 INPUT CARD>   EXETYP=RUN COORD=UNIQUE  UNITS=ANGS                                          
 INPUT CARD>   RUNTYP=ENERGY SCFTYP=RHF CITYP=NONE                                          
 INPUT CARD>   MAXIT=100                                                                    
 INPUT CARD>   ISPHER=1                                                                     
 INPUT CARD>   MULT=1                                                                       
 INPUT CARD>   ICHARG=1                                                                     
 INPUT CARD>   MPLEVL=0                                                                     
 INPUT CARD>   ECP=READ                                                                     
 INPUT CARD> $END                                                                           
 INPUT CARD>                                                                                
 INPUT CARD> $GUESS                                                                         
 INPUT CARD>  GUESS=HUCKEL                                                                  
 INPUT CARD> $END                                                                           
 INPUT CARD>                                                                                
 INPUT CARD> $SCF                                                                           
 INPUT CARD>  DIRSCF=.T. DIIS=.T.                                                           
 INPUT CARD> $END                                                                           
 INPUT CARD>                                                                                
 INPUT CARD> $BASIS                                                                         
 INPUT CARD>  EXTFIL=.TRUE.                                                                 
 INPUT CARD>  GBASIS=BASIS                                                                  
 INPUT CARD> $END                                                                           
 INPUT CARD>                                                                                
 INPUT CARD> $DATA                                                                          
 INPUT CARD>C3                                                                              
 INPUT CARD>C1                                                                              
 INPUT CARD>H  1.0           0.000000    0.000000    1.536359                               
 INPUT CARD>H  1.0           0.000000    1.170185   -1.312049                               
 INPUT CARD>H  1.0           0.000000   -1.170185   -1.312049                               
 INPUT CARD>H  1.0           0.000000    2.550740    1.449846                               
 INPUT CARD>H  1.0           0.000000   -2.550740    1.449846                               
 INPUT CARD>H  1.0           0.000000    3.507917   -1.487016                               
 INPUT CARD>H  1.0           0.000000   -3.507917   -1.487016                               
 INPUT CARD>H  1.0           0.000000    5.043211    1.035192                               
 INPUT CARD>H  1.0           0.000000   -5.043211    1.035192                               
 INPUT CARD>H  1.0           0.000000    5.628266   -0.578359                               
 INPUT CARD>H  1.0           0.000000   -5.628266   -0.578359                               
 INPUT CARD>C  6.0           0.000000    0.000000    0.451338                               
 INPUT CARD>C  6.0           0.000000    1.207990   -0.224465                               
 INPUT CARD>C  6.0           0.000000   -1.207990   -0.224465                               
 INPUT CARD>C  6.0           0.000000    2.465274    0.368365                               
 INPUT CARD>C  6.0           0.000000   -2.465274    0.368365                               
 INPUT CARD>C  6.0           0.000000    3.602804   -0.405932                               
 INPUT CARD>C  6.0           0.000000   -3.602804   -0.405932                               
 INPUT CARD>N  7.0           0.000000    4.844304    0.048913                               
 INPUT CARD>N  7.0           0.000000   -4.844304    0.048913                               
 INPUT CARD> $END                                                                           
 INPUT CARD>                                                                                
 INPUT CARD> $ECP                                                                           

 ..... DONE SETTING UP THE RUN .....
    1000000 WORDS OF MEMORY AVAILABLE

     $BASIS REQUESTS READING THE "BASIS   " BASIS SET FROM AN EXTERNAL FILE


     RUN TITLE
     ---------
 C3                                                                              

 THE POINT GROUP OF THE MOLECULE IS C1      
 THE ORDER OF THE PRINCIPAL AXIS IS     0

 THE EXTERNAL BASIS SET FILE BEING READ IS
     "/home/scemama/Cyanines/Runs/AVDZ_Pseudo/BASIS"
 *** WARNING! ATOM   1 SHELL    1 TYPE S HAS NORMALIZATION   1.32259418
 *** WARNING! ATOM   1 SHELL    3 TYPE P HAS NORMALIZATION  22.65171974
 *** WARNING! ATOM   2 SHELL    6 TYPE S HAS NORMALIZATION   1.32259418
 *** WARNING! ATOM   2 SHELL    8 TYPE P HAS NORMALIZATION  22.65171974
 *** WARNING! ATOM   3 SHELL   11 TYPE S HAS NORMALIZATION   1.32259418
 *** WARNING! ATOM   3 SHELL   13 TYPE P HAS NORMALIZATION  22.65171974
 *** WARNING! ATOM   4 SHELL   16 TYPE S HAS NORMALIZATION   1.32259418
 *** WARNING! ATOM   4 SHELL   18 TYPE P HAS NORMALIZATION  22.65171974
 *** WARNING! ATOM   5 SHELL   21 TYPE S HAS NORMALIZATION   1.32259418
 *** WARNING! ATOM   5 SHELL   23 TYPE P HAS NORMALIZATION  22.65171974
 *** WARNING! ATOM   6 SHELL   26 TYPE S HAS NORMALIZATION   1.32259418
 *** WARNING! ATOM   6 SHELL   28 TYPE P HAS NORMALIZATION  22.65171974
 *** WARNING! ATOM   7 SHELL   31 TYPE S HAS NORMALIZATION   1.32259418
 *** WARNING! ATOM   7 SHELL   33 TYPE P HAS NORMALIZATION  22.65171974
 *** WARNING! ATOM   8 SHELL   36 TYPE S HAS NORMALIZATION   1.32259418
 *** WARNING! ATOM   8 SHELL   38 TYPE P HAS NORMALIZATION  22.65171974
 *** WARNING! ATOM   9 SHELL   41 TYPE S HAS NORMALIZATION   1.32259418
 *** WARNING! ATOM   9 SHELL   43 TYPE P HAS NORMALIZATION  22.65171974
 *** WARNING! ATOM  10 SHELL   46 TYPE S HAS NORMALIZATION   1.32259418
 *** WARNING! ATOM  10 SHELL   48 TYPE P HAS NORMALIZATION  22.65171974
 *** WARNING! ATOM  11 SHELL   51 TYPE S HAS NORMALIZATION   1.32259418
 *** WARNING! ATOM  11 SHELL   53 TYPE P HAS NORMALIZATION  22.65171974

 ATOM      ATOMIC                      COORDINATES (BOHR)
           CHARGE         X                   Y                   Z
 H           1.0     0.0000000000        0.0000000000        2.9032975288
 H           1.0     0.0000000000        2.2113290049       -2.4794130925
 H           1.0     0.0000000000       -2.2113290049       -2.4794130925
 H           1.0     0.0000000000        4.8201996659        2.7398116644
 H           1.0     0.0000000000       -4.8201996659        2.7398116644
 H           1.0     0.0000000000        6.6290019177       -2.8100527794
 H           1.0     0.0000000000       -6.6290019177       -2.8100527794
 H           1.0     0.0000000000        9.5302868883        1.9562292247
 H           1.0     0.0000000000       -9.5302868883        1.9562292247
 H           1.0     0.0000000000       10.6358805260       -1.0929400325
 H           1.0     0.0000000000      -10.6358805260       -1.0929400325
 C           6.0     0.0000000000        0.0000000000        0.8529051478
 C           6.0     0.0000000000        2.2827700959       -0.4241773438
 C           6.0     0.0000000000       -2.2827700959       -0.4241773438
 C           6.0     0.0000000000        4.6586923447        0.6961089135
 C           6.0     0.0000000000       -4.6586923447        0.6961089135
 C           6.0     0.0000000000        6.8083123475       -0.7671002496
 C           6.0     0.0000000000       -6.8083123475       -0.7671002496
 N           7.0     0.0000000000        9.1544071612        0.0924321672
 N           7.0     0.0000000000       -9.1544071612        0.0924321672

          INTERNUCLEAR DISTANCES (ANGS.)
          ------------------------------

                    H              H              H              H         

  1  H               0.0000000      3.0794092      3.0794092      2.5522067 *  
  2  H               3.0794092      0.0000000      2.3403700 *    3.0877170    
  3  H               3.0794092      2.3403700 *    0.0000000      4.6339343    
  4  H               2.5522067 *    3.0877170      4.6339343      0.0000000    
  5  H               2.5522067 *    4.6339343      3.0877170      5.1014800    
  6  H               4.6310126      2.3442705 *    4.6813729      3.0889070    
  7  H               4.6310126      4.6813729      2.3442705 *    6.7329401    
  8  H               5.0680515      4.5287825      6.6419749      2.5267271 *  
  9  H               5.0680515      6.6419749      4.5287825      7.6052633    
 10  H               6.0124380      4.5180513      6.8379264      3.6857539    
 11  H               6.0124380      6.8379264      4.5180513      8.4267286    
 12  C               1.0850210 *    2.1163333 *    2.1163333 *    2.7392139 *  
 13  C               2.1353550 *    1.0882409 *    2.6150632 *    2.1462281 *  
 14  C               2.1353550 *    2.6150632 *    1.0882409 *    4.1147744    
 15  C               2.7279637 *    2.1215670 *    4.0050410      1.0848528 *  
 16  C               2.7279637 *    4.0050410      2.1215670 *    5.1312764    
 17  C               4.0930051      2.5958974 *    4.8582375      2.1332488 *  
 18  C               4.0930051      4.8582375      2.5958974 *    6.4272868    
 19  N               5.0675218      3.9180822      6.1665465      2.6875731 *  
 20  N               5.0675218      6.1665465      3.9180822      7.5265722    

                    H              H              H              H         

  1  H               2.5522067 *    4.6310126      4.6310126      5.0680515    
  2  H               4.6339343      2.3442705 *    4.6813729      4.5287825    
  3  H               3.0877170      4.6813729      2.3442705 *    6.6419749    
  4  H               5.1014800      3.0889070      6.7329401      2.5267271 *  
  5  H               0.0000000      6.7329401      3.0889070      7.6052633    
  6  H               6.7329401      0.0000000      7.0158340      2.9527379 *  
  7  H               3.0889070      7.0158340      0.0000000      8.9153420    
  8  H               7.6052633      2.9527379 *    8.9153420      0.0000000    
  9  H               2.5267271 *    8.9153420      2.9527379 *   10.0864220    
 10  H               8.4267286      2.3068458 *    9.1812579      1.7163438 *  
 11  H               3.6857539      9.1812579      2.3068458 *   10.7927739    
 12  C               2.7392139 *    4.0078296      4.0078296      5.0768950    
 13  C               4.1147744      2.6236805 *    4.8819887      4.0367878    
 14  C               2.1462281 *    4.8819887      2.6236805 *    6.3768526    
 15  C               5.1312764      2.1282723 *    6.2547142      2.6627838 *  
 16  C               1.0848528 *    6.2547142      2.1282723 *    7.5380372    
 17  C               6.4272868      1.0852401 *    7.1924332      2.0375502 *  
 18  C               2.1332488 *    7.1924332      1.0852401 *    8.7652960    
 19  N               7.5265722      2.0359293 *    8.4922714      1.0061363 *  
 20  N               2.6875731 *    8.4922714      2.0359293 *    9.9365839    

                    H              H              H              C         

  1  H               5.0680515      6.0124380      6.0124380      1.0850210 *  
  2  H               6.6419749      4.5180513      6.8379264      2.1163333 *  
  3  H               4.5287825      6.8379264      4.5180513      2.1163333 *  
  4  H               7.6052633      3.6857539      8.4267286      2.7392139 *  
  5  H               2.5267271 *    8.4267286      3.6857539      2.7392139 *  
  6  H               8.9153420      2.3068458 *    9.1812579      4.0078296    
  7  H               2.9527379 *    9.1812579      2.3068458 *    4.0078296    
  8  H              10.0864220      1.7163438 *   10.7927739      5.0768950    
  9  H               0.0000000     10.7927739      1.7163438 *    5.0768950    
 10  H              10.7927739      0.0000000     11.2565320      5.7216828    
 11  H               1.7163438 *   11.2565320      0.0000000      5.7216828    
 12  C               5.0768950      5.7216828      5.7216828      0.0000000    
 13  C               6.3768526      4.4344200      6.8454099      1.3841783 *  
 14  C               4.0367878      6.8454099      4.4344200      1.3841783 *  
 15  C               7.5380372      3.3016367      8.1487224      2.4666699 *  
 16  C               2.6627838 *    8.1487224      3.3016367      2.4666699 *  
 17  C               8.7652960      2.0327881 *    9.2326802      3.7033915    
 18  C               2.0375502 *    9.2326802      2.0327881 *    3.7033915    
 19  N               9.9365839      1.0040252 *   10.4913389      4.8609903    
 20  N               1.0061363 *   10.4913389      1.0040252 *    4.8609903    

                    C              C              C              C         

  1  H               2.1353550 *    2.1353550 *    2.7279637 *    2.7279637 *  
  2  H               1.0882409 *    2.6150632 *    2.1215670 *    4.0050410    
  3  H               2.6150632 *    1.0882409 *    4.0050410      2.1215670 *  
  4  H               2.1462281 *    4.1147744      1.0848528 *    5.1312764    
  5  H               4.1147744      2.1462281 *    5.1312764      1.0848528 *  
  6  H               2.6236805 *    4.8819887      2.1282723 *    6.2547142    
  7  H               4.8819887      2.6236805 *    6.2547142      2.1282723 *  
  8  H               4.0367878      6.3768526      2.6627838 *    7.5380372    
  9  H               6.3768526      4.0367878      7.5380372      2.6627838 *  
 10  H               4.4344200      6.8454099      3.3016367      8.1487224    
 11  H               6.8454099      4.4344200      8.1487224      3.3016367    
 12  C               1.3841783 *    1.3841783 *    2.4666699 *    2.4666699 *  
 13  C               0.0000000      2.4159800 *    1.3900397 *    3.7207951    
 14  C               2.4159800 *    0.0000000      3.7207951      1.3900397 *  
 15  C               1.3900397 *    3.7207951      0.0000000      4.9305480    
 16  C               3.7207951      1.3900397 *    4.9305480      0.0000000    
 17  C               2.4016795 *    4.8142153      1.3760488 *    6.1172793    
 18  C               4.8142153      2.4016795 *    6.1172793      1.3760488 *  
 19  N               3.6465758      6.0584650      2.4003819 *    7.3165552    
 20  N               6.0584650      3.6465758      7.3165552      2.4003819 *  

                    C              C              N              N         

  1  H               4.0930051      4.0930051      5.0675218      5.0675218    
  2  H               2.5958974 *    4.8582375      3.9180822      6.1665465    
  3  H               4.8582375      2.5958974 *    6.1665465      3.9180822    
  4  H               2.1332488 *    6.4272868      2.6875731 *    7.5265722    
  5  H               6.4272868      2.1332488 *    7.5265722      2.6875731 *  
  6  H               1.0852401 *    7.1924332      2.0359293 *    8.4922714    
  7  H               7.1924332      1.0852401 *    8.4922714      2.0359293 *  
  8  H               2.0375502 *    8.7652960      1.0061363 *    9.9365839    
  9  H               8.7652960      2.0375502 *    9.9365839      1.0061363 *  
 10  H               2.0327881 *    9.2326802      1.0040252 *   10.4913389    
 11  H               9.2326802      2.0327881 *   10.4913389      1.0040252 *  
 12  C               3.7033915      3.7033915      4.8609903      4.8609903    
 13  C               2.4016795 *    4.8142153      3.6465758      6.0584650    
 14  C               4.8142153      2.4016795 *    6.0584650      3.6465758    
 15  C               1.3760488 *    6.1172793      2.4003819 *    7.3165552    
 16  C               6.1172793      1.3760488 *    7.3165552      2.4003819 *  
 17  C               0.0000000      7.2056080      1.3221975 *    8.4593450    
 18  C               7.2056080      0.0000000      8.4593450      1.3221975 *  
 19  N               1.3221975 *    8.4593450      0.0000000      9.6886080    
 20  N               8.4593450      1.3221975 *    9.6886080      0.0000000    

  * ... LESS THAN  3.000


     ATOMIC BASIS SET
     ----------------
 THE CONTRACTED PRIMITIVE FUNCTIONS HAVE BEEN UNNORMALIZED
 THE CONTRACTED BASIS FUNCTIONS ARE NOW NORMALIZED TO UNITY

  SHELL TYPE  PRIMITIVE        EXPONENT          CONTRACTION COEFFICIENT(S)

 H         

      1   S       1             0.0130000    0.000933751491
      1   S       2             0.0299000   -0.002802577067
      1   S       3             0.0687700    0.076304426024
      1   S       4             0.1581700    0.305115864344
      1   S       5             0.3637920    0.367168015485
      1   S       6             0.8367210    0.224620137364
      1   S       7             1.9244580    0.128877544677
      1   S       8             4.4262540    0.039632857196
      1   S       9            10.1803850   -0.000597812569

      2   S      10             0.1704830    1.000000000000

      3   P      11             0.0030000    0.028133435917
      3   P      12             0.0078000   -0.020681020122
      3   P      13             0.0202810   -0.001223192866
      3   P      14             0.0527300   -0.005391109298
      3   P      15             0.1370970   -0.261174328600
      3   P      16             0.3564510   -0.413054109456
      3   P      17             0.9267740   -0.315515804256
      3   P      18             2.4096120   -0.212812906956
      3   P      19             6.2649910   -0.007860146750

      4   S      20             0.0297400    1.000000000000

      5   P      21             0.1410000    1.000000000000

 H         

      6   S      22             0.0130000    0.000933751491
      6   S      23             0.0299000   -0.002802577067
      6   S      24             0.0687700    0.076304426024
      6   S      25             0.1581700    0.305115864344
      6   S      26             0.3637920    0.367168015485
      6   S      27             0.8367210    0.224620137364
      6   S      28             1.9244580    0.128877544677
      6   S      29             4.4262540    0.039632857196
      6   S      30            10.1803850   -0.000597812569

      7   S      31             0.1704830    1.000000000000

      8   P      32             0.0030000    0.028133435917
      8   P      33             0.0078000   -0.020681020122
      8   P      34             0.0202810   -0.001223192866
      8   P      35             0.0527300   -0.005391109298
      8   P      36             0.1370970   -0.261174328600
      8   P      37             0.3564510   -0.413054109456
      8   P      38             0.9267740   -0.315515804256
      8   P      39             2.4096120   -0.212812906956
      8   P      40             6.2649910   -0.007860146750

      9   S      41             0.0297400    1.000000000000

     10   P      42             0.1410000    1.000000000000

 H         

     11   S      43             0.0130000    0.000933751491
     11   S      44             0.0299000   -0.002802577067
     11   S      45             0.0687700    0.076304426024
     11   S      46             0.1581700    0.305115864344
     11   S      47             0.3637920    0.367168015485
     11   S      48             0.8367210    0.224620137364
     11   S      49             1.9244580    0.128877544677
     11   S      50             4.4262540    0.039632857196
     11   S      51            10.1803850   -0.000597812569

     12   S      52             0.1704830    1.000000000000

     13   P      53             0.0030000    0.028133435917
     13   P      54             0.0078000   -0.020681020122
     13   P      55             0.0202810   -0.001223192866
     13   P      56             0.0527300   -0.005391109298
     13   P      57             0.1370970   -0.261174328600
     13   P      58             0.3564510   -0.413054109456
     13   P      59             0.9267740   -0.315515804256
     13   P      60             2.4096120   -0.212812906956
     13   P      61             6.2649910   -0.007860146750

     14   S      62             0.0297400    1.000000000000

     15   P      63             0.1410000    1.000000000000

 H         

     16   S      64             0.0130000    0.000933751491
     16   S      65             0.0299000   -0.002802577067
     16   S      66             0.0687700    0.076304426024
     16   S      67             0.1581700    0.305115864344
     16   S      68             0.3637920    0.367168015485
     16   S      69             0.8367210    0.224620137364
     16   S      70             1.9244580    0.128877544677
     16   S      71             4.4262540    0.039632857196
     16   S      72            10.1803850   -0.000597812569

     17   S      73             0.1704830    1.000000000000

     18   P      74             0.0030000    0.028133435917
     18   P      75             0.0078000   -0.020681020122
     18   P      76             0.0202810   -0.001223192866
     18   P      77             0.0527300   -0.005391109298
     18   P      78             0.1370970   -0.261174328600
     18   P      79             0.3564510   -0.413054109456
     18   P      80             0.9267740   -0.315515804256
     18   P      81             2.4096120   -0.212812906956
     18   P      82             6.2649910   -0.007860146750

     19   S      83             0.0297400    1.000000000000

     20   P      84             0.1410000    1.000000000000

 H         

     21   S      85             0.0130000    0.000933751491
     21   S      86             0.0299000   -0.002802577067
     21   S      87             0.0687700    0.076304426024
     21   S      88             0.1581700    0.305115864344
     21   S      89             0.3637920    0.367168015485
     21   S      90             0.8367210    0.224620137364
     21   S      91             1.9244580    0.128877544677
     21   S      92             4.4262540    0.039632857196
     21   S      93            10.1803850   -0.000597812569

     22   S      94             0.1704830    1.000000000000

     23   P      95             0.0030000    0.028133435917
     23   P      96             0.0078000   -0.020681020122
     23   P      97             0.0202810   -0.001223192866
     23   P      98             0.0527300   -0.005391109298
     23   P      99             0.1370970   -0.261174328600
     23   P     100             0.3564510   -0.413054109456
     23   P     101             0.9267740   -0.315515804256
     23   P     102             2.4096120   -0.212812906956
     23   P     103             6.2649910   -0.007860146750

     24   S     104             0.0297400    1.000000000000

     25   P     105             0.1410000    1.000000000000

 H         

     26   S     106             0.0130000    0.000933751491
     26   S     107             0.0299000   -0.002802577067
     26   S     108             0.0687700    0.076304426024
     26   S     109             0.1581700    0.305115864344
     26   S     110             0.3637920    0.367168015485
     26   S     111             0.8367210    0.224620137364
     26   S     112             1.9244580    0.128877544677
     26   S     113             4.4262540    0.039632857196
     26   S     114            10.1803850   -0.000597812569

     27   S     115             0.1704830    1.000000000000

     28   P     116             0.0030000    0.028133435917
     28   P     117             0.0078000   -0.020681020122
     28   P     118             0.0202810   -0.001223192866
     28   P     119             0.0527300   -0.005391109298
     28   P     120             0.1370970   -0.261174328600
     28   P     121             0.3564510   -0.413054109456
     28   P     122             0.9267740   -0.315515804256
     28   P     123             2.4096120   -0.212812906956
     28   P     124             6.2649910   -0.007860146750

     29   S     125             0.0297400    1.000000000000

     30   P     126             0.1410000    1.000000000000

 H         

     31   S     127             0.0130000    0.000933751491
     31   S     128             0.0299000   -0.002802577067
     31   S     129             0.0687700    0.076304426024
     31   S     130             0.1581700    0.305115864344
     31   S     131             0.3637920    0.367168015485
     31   S     132             0.8367210    0.224620137364
     31   S     133             1.9244580    0.128877544677
     31   S     134             4.4262540    0.039632857196
     31   S     135            10.1803850   -0.000597812569

     32   S     136             0.1704830    1.000000000000

     33   P     137             0.0030000    0.028133435917
     33   P     138             0.0078000   -0.020681020122
     33   P     139             0.0202810   -0.001223192866
     33   P     140             0.0527300   -0.005391109298
     33   P     141             0.1370970   -0.261174328600
     33   P     142             0.3564510   -0.413054109456
     33   P     143             0.9267740   -0.315515804256
     33   P     144             2.4096120   -0.212812906956
     33   P     145             6.2649910   -0.007860146750

     34   S     146             0.0297400    1.000000000000

     35   P     147             0.1410000    1.000000000000

 H         

     36   S     148             0.0130000    0.000933751491
     36   S     149             0.0299000   -0.002802577067
     36   S     150             0.0687700    0.076304426024
     36   S     151             0.1581700    0.305115864344
     36   S     152             0.3637920    0.367168015485
     36   S     153             0.8367210    0.224620137364
     36   S     154             1.9244580    0.128877544677
     36   S     155             4.4262540    0.039632857196
     36   S     156            10.1803850   -0.000597812569

     37   S     157             0.1704830    1.000000000000

     38   P     158             0.0030000    0.028133435917
     38   P     159             0.0078000   -0.020681020122
     38   P     160             0.0202810   -0.001223192866
     38   P     161             0.0527300   -0.005391109298
     38   P     162             0.1370970   -0.261174328600
     38   P     163             0.3564510   -0.413054109456
     38   P     164             0.9267740   -0.315515804256
     38   P     165             2.4096120   -0.212812906956
     38   P     166             6.2649910   -0.007860146750

     39   S     167             0.0297400    1.000000000000

     40   P     168             0.1410000    1.000000000000

 H         

     41   S     169             0.0130000    0.000933751491
     41   S     170             0.0299000   -0.002802577067
     41   S     171             0.0687700    0.076304426024
     41   S     172             0.1581700    0.305115864344
     41   S     173             0.3637920    0.367168015485
     41   S     174             0.8367210    0.224620137364
     41   S     175             1.9244580    0.128877544677
     41   S     176             4.4262540    0.039632857196
     41   S     177            10.1803850   -0.000597812569

     42   S     178             0.1704830    1.000000000000

     43   P     179             0.0030000    0.028133435917
     43   P     180             0.0078000   -0.020681020122
     43   P     181             0.0202810   -0.001223192866
     43   P     182             0.0527300   -0.005391109298
     43   P     183             0.1370970   -0.261174328600
     43   P     184             0.3564510   -0.413054109456
     43   P     185             0.9267740   -0.315515804256
     43   P     186             2.4096120   -0.212812906956
     43   P     187             6.2649910   -0.007860146750

     44   S     188             0.0297400    1.000000000000

     45   P     189             0.1410000    1.000000000000

 H         

     46   S     190             0.0130000    0.000933751491
     46   S     191             0.0299000   -0.002802577067
     46   S     192             0.0687700    0.076304426024
     46   S     193             0.1581700    0.305115864344
     46   S     194             0.3637920    0.367168015485
     46   S     195             0.8367210    0.224620137364
     46   S     196             1.9244580    0.128877544677
     46   S     197             4.4262540    0.039632857196
     46   S     198            10.1803850   -0.000597812569

     47   S     199             0.1704830    1.000000000000

     48   P     200             0.0030000    0.028133435917
     48   P     201             0.0078000   -0.020681020122
     48   P     202             0.0202810   -0.001223192866
     48   P     203             0.0527300   -0.005391109298
     48   P     204             0.1370970   -0.261174328600
     48   P     205             0.3564510   -0.413054109456
     48   P     206             0.9267740   -0.315515804256
     48   P     207             2.4096120   -0.212812906956
     48   P     208             6.2649910   -0.007860146750

     49   S     209             0.0297400    1.000000000000

     50   P     210             0.1410000    1.000000000000

 H         

     51   S     211             0.0130000    0.000933751491
     51   S     212             0.0299000   -0.002802577067
     51   S     213             0.0687700    0.076304426024
     51   S     214             0.1581700    0.305115864344
     51   S     215             0.3637920    0.367168015485
     51   S     216             0.8367210    0.224620137364
     51   S     217             1.9244580    0.128877544677
     51   S     218             4.4262540    0.039632857196
     51   S     219            10.1803850   -0.000597812569

     52   S     220             0.1704830    1.000000000000

     53   P     221             0.0030000    0.028133435917
     53   P     222             0.0078000   -0.020681020122
     53   P     223             0.0202810   -0.001223192866
     53   P     224             0.0527300   -0.005391109298
     53   P     225             0.1370970   -0.261174328600
     53   P     226             0.3564510   -0.413054109456
     53   P     227             0.9267740   -0.315515804256
     53   P     228             2.4096120   -0.212812906956
     53   P     229             6.2649910   -0.007860146750

     54   S     230             0.0297400    1.000000000000

     55   P     231             0.1410000    1.000000000000

 C         

     56   S     232             0.0513440    0.013990987871
     56   S     233             0.1026190    0.169851852753
     56   S     234             0.2051000    0.397528655377
     56   S     235             0.4099240    0.380368670253
     56   S     236             0.8192970    0.180112843858
     56   S     237             1.6374940   -0.033511970948
     56   S     238             3.2727910   -0.121498894671
     56   S     239             6.5411870    0.015175986844
     56   S     240            13.0735940   -0.000704999389

     57   S     241             0.1278520    1.000000000000

     58   P     242             0.0292810    0.001787000047
     58   P     243             0.0585470    0.050426001336
     58   P     244             0.1170630    0.191634005079
     58   P     245             0.2340640    0.302667008021
     58   P     246             0.4680030    0.289868007682
     58   P     247             0.9357570    0.210979005591
     58   P     248             1.8710160    0.112024002969
     58   P     249             3.7410350    0.054425001442
     58   P     250             7.4800760    0.021931000581

     59   P     251             0.1491610    1.000000000000

     60   D     252             0.5611600    1.000000000000

     61   S     253             0.0469000    1.000000000000

     62   P     254             0.0404100    1.000000000000

     63   D     255             0.1510000    1.000000000000

 C         

     64   S     256             0.0513440    0.013990987871
     64   S     257             0.1026190    0.169851852753
     64   S     258             0.2051000    0.397528655377
     64   S     259             0.4099240    0.380368670253
     64   S     260             0.8192970    0.180112843858
     64   S     261             1.6374940   -0.033511970948
     64   S     262             3.2727910   -0.121498894671
     64   S     263             6.5411870    0.015175986844
     64   S     264            13.0735940   -0.000704999389

     65   S     265             0.1278520    1.000000000000

     66   P     266             0.0292810    0.001787000047
     66   P     267             0.0585470    0.050426001336
     66   P     268             0.1170630    0.191634005079
     66   P     269             0.2340640    0.302667008021
     66   P     270             0.4680030    0.289868007682
     66   P     271             0.9357570    0.210979005591
     66   P     272             1.8710160    0.112024002969
     66   P     273             3.7410350    0.054425001442
     66   P     274             7.4800760    0.021931000581

     67   P     275             0.1491610    1.000000000000

     68   D     276             0.5611600    1.000000000000

     69   S     277             0.0469000    1.000000000000

     70   P     278             0.0404100    1.000000000000

     71   D     279             0.1510000    1.000000000000

 C         

     72   S     280             0.0513440    0.013990987871
     72   S     281             0.1026190    0.169851852753
     72   S     282             0.2051000    0.397528655377
     72   S     283             0.4099240    0.380368670253
     72   S     284             0.8192970    0.180112843858
     72   S     285             1.6374940   -0.033511970948
     72   S     286             3.2727910   -0.121498894671
     72   S     287             6.5411870    0.015175986844
     72   S     288            13.0735940   -0.000704999389

     73   S     289             0.1278520    1.000000000000

     74   P     290             0.0292810    0.001787000047
     74   P     291             0.0585470    0.050426001336
     74   P     292             0.1170630    0.191634005079
     74   P     293             0.2340640    0.302667008021
     74   P     294             0.4680030    0.289868007682
     74   P     295             0.9357570    0.210979005591
     74   P     296             1.8710160    0.112024002969
     74   P     297             3.7410350    0.054425001442
     74   P     298             7.4800760    0.021931000581

     75   P     299             0.1491610    1.000000000000

     76   D     300             0.5611600    1.000000000000

     77   S     301             0.0469000    1.000000000000

     78   P     302             0.0404100    1.000000000000

     79   D     303             0.1510000    1.000000000000

 C         

     80   S     304             0.0513440    0.013990987871
     80   S     305             0.1026190    0.169851852753
     80   S     306             0.2051000    0.397528655377
     80   S     307             0.4099240    0.380368670253
     80   S     308             0.8192970    0.180112843858
     80   S     309             1.6374940   -0.033511970948
     80   S     310             3.2727910   -0.121498894671
     80   S     311             6.5411870    0.015175986844
     80   S     312            13.0735940   -0.000704999389

     81   S     313             0.1278520    1.000000000000

     82   P     314             0.0292810    0.001787000047
     82   P     315             0.0585470    0.050426001336
     82   P     316             0.1170630    0.191634005079
     82   P     317             0.2340640    0.302667008021
     82   P     318             0.4680030    0.289868007682
     82   P     319             0.9357570    0.210979005591
     82   P     320             1.8710160    0.112024002969
     82   P     321             3.7410350    0.054425001442
     82   P     322             7.4800760    0.021931000581

     83   P     323             0.1491610    1.000000000000

     84   D     324             0.5611600    1.000000000000

     85   S     325             0.0469000    1.000000000000

     86   P     326             0.0404100    1.000000000000

     87   D     327             0.1510000    1.000000000000

 C         

     88   S     328             0.0513440    0.013990987871
     88   S     329             0.1026190    0.169851852753
     88   S     330             0.2051000    0.397528655377
     88   S     331             0.4099240    0.380368670253
     88   S     332             0.8192970    0.180112843858
     88   S     333             1.6374940   -0.033511970948
     88   S     334             3.2727910   -0.121498894671
     88   S     335             6.5411870    0.015175986844
     88   S     336            13.0735940   -0.000704999389

     89   S     337             0.1278520    1.000000000000

     90   P     338             0.0292810    0.001787000047
     90   P     339             0.0585470    0.050426001336
     90   P     340             0.1170630    0.191634005079
     90   P     341             0.2340640    0.302667008021
     90   P     342             0.4680030    0.289868007682
     90   P     343             0.9357570    0.210979005591
     90   P     344             1.8710160    0.112024002969
     90   P     345             3.7410350    0.054425001442
     90   P     346             7.4800760    0.021931000581

     91   P     347             0.1491610    1.000000000000

     92   D     348             0.5611600    1.000000000000

     93   S     349             0.0469000    1.000000000000

     94   P     350             0.0404100    1.000000000000

     95   D     351             0.1510000    1.000000000000

 C         

     96   S     352             0.0513440    0.013990987871
     96   S     353             0.1026190    0.169851852753
     96   S     354             0.2051000    0.397528655377
     96   S     355             0.4099240    0.380368670253
     96   S     356             0.8192970    0.180112843858
     96   S     357             1.6374940   -0.033511970948
     96   S     358             3.2727910   -0.121498894671
     96   S     359             6.5411870    0.015175986844
     96   S     360            13.0735940   -0.000704999389

     97   S     361             0.1278520    1.000000000000

     98   P     362             0.0292810    0.001787000047
     98   P     363             0.0585470    0.050426001336
     98   P     364             0.1170630    0.191634005079
     98   P     365             0.2340640    0.302667008021
     98   P     366             0.4680030    0.289868007682
     98   P     367             0.9357570    0.210979005591
     98   P     368             1.8710160    0.112024002969
     98   P     369             3.7410350    0.054425001442
     98   P     370             7.4800760    0.021931000581

     99   P     371             0.1491610    1.000000000000

    100   D     372             0.5611600    1.000000000000

    101   S     373             0.0469000    1.000000000000

    102   P     374             0.0404100    1.000000000000

    103   D     375             0.1510000    1.000000000000

 C         

    104   S     376             0.0513440    0.013990987871
    104   S     377             0.1026190    0.169851852753
    104   S     378             0.2051000    0.397528655377
    104   S     379             0.4099240    0.380368670253
    104   S     380             0.8192970    0.180112843858
    104   S     381             1.6374940   -0.033511970948
    104   S     382             3.2727910   -0.121498894671
    104   S     383             6.5411870    0.015175986844
    104   S     384            13.0735940   -0.000704999389

    105   S     385             0.1278520    1.000000000000

    106   P     386             0.0292810    0.001787000047
    106   P     387             0.0585470    0.050426001336
    106   P     388             0.1170630    0.191634005079
    106   P     389             0.2340640    0.302667008021
    106   P     390             0.4680030    0.289868007682
    106   P     391             0.9357570    0.210979005591
    106   P     392             1.8710160    0.112024002969
    106   P     393             3.7410350    0.054425001442
    106   P     394             7.4800760    0.021931000581

    107   P     395             0.1491610    1.000000000000

    108   D     396             0.5611600    1.000000000000

    109   S     397             0.0469000    1.000000000000

    110   P     398             0.0404100    1.000000000000

    111   D     399             0.1510000    1.000000000000

 N         

    112   S     400             0.0988690    0.067266010234
    112   S     401             0.2114430    0.334290050859
    112   S     402             0.4521970    0.454257069111
    112   S     403             0.9670800    0.267861040752
    112   S     404             2.0682210    0.000248000038
    112   S     405             4.4231500   -0.132606020175
    112   S     406             9.4594620    0.014437002196
    112   S     407            20.2302460    0.000359000055
    112   S     408            43.2649190   -0.000094000014

    113   S     409             0.1751230    1.000000000000

    114   P     410             0.0732340    0.035757988749
    114   P     411             0.1458670    0.153944951562
    114   P     412             0.2905350    0.277655912638
    114   P     413             0.5786830    0.297675906338
    114   P     414             1.1526120    0.234402926247
    114   P     415             2.2957560    0.140320955849
    114   P     416             4.5726520    0.067218978850
    114   P     417             9.1077390    0.031593990059
    114   P     418            18.1406570    0.003300998961

    115   P     419             0.2230420    1.000000000000

    116   D     420             0.8320580    1.000000000000

    117   S     421             0.0612400    1.000000000000

    118   P     422             0.0561100    1.000000000000

    119   D     423             0.2300000    1.000000000000

 N         

    120   S     424             0.0988690    0.067266010234
    120   S     425             0.2114430    0.334290050859
    120   S     426             0.4521970    0.454257069111
    120   S     427             0.9670800    0.267861040752
    120   S     428             2.0682210    0.000248000038
    120   S     429             4.4231500   -0.132606020175
    120   S     430             9.4594620    0.014437002196
    120   S     431            20.2302460    0.000359000055
    120   S     432            43.2649190   -0.000094000014

    121   S     433             0.1751230    1.000000000000

    122   P     434             0.0732340    0.035757988749
    122   P     435             0.1458670    0.153944951562
    122   P     436             0.2905350    0.277655912638
    122   P     437             0.5786830    0.297675906338
    122   P     438             1.1526120    0.234402926247
    122   P     439             2.2957560    0.140320955849
    122   P     440             4.5726520    0.067218978850
    122   P     441             9.1077390    0.031593990059
    122   P     442            18.1406570    0.003300998961

    123   P     443             0.2230420    1.000000000000

    124   D     444             0.8320580    1.000000000000

    125   S     445             0.0612400    1.000000000000

    126   P     446             0.0561100    1.000000000000

    127   D     447             0.2300000    1.000000000000

 TOTAL NUMBER OF BASIS SET SHELLS             =  127
 NUMBER OF CARTESIAN GAUSSIAN BASIS FUNCTIONS =  315
 NOTE: THIS RUN WILL RESTRICT THE MO VARIATION SPACE TO SPHERICAL HARMONICS.
 THE NUMBER OF ORBITALS KEPT IN THE VARIATIONAL SPACE WILL BE PRINTED LATER.
 NUMBER OF ELECTRONS                          =   66
 CHARGE OF MOLECULE                           =    1
 SPIN MULTIPLICITY                            =    1
 NUMBER OF OCCUPIED ORBITALS (ALPHA)          =   33
 NUMBER OF OCCUPIED ORBITALS (BETA )          =   33
 TOTAL NUMBER OF ATOMS                        =   20
 THE NUCLEAR REPULSION ENERGY IS      378.1181902989
 NOTE THIS RUN IS USING CORE POTENTIALS, AND THE NUMBER OF ELECTRONS,
 OCCUPIED ORBITALS, AND NUCLEAR REPULSION ENERGY WILL BE ADJUSTED BELOW
 AFTER REMOVAL OF THE CORE CHARGES.

     $CONTRL OPTIONS
     ---------------
 SCFTYP=RHF          RUNTYP=ENERGY       EXETYP=RUN     
 MPLEVL=       0     CITYP =NONE         CCTYP =NONE         VBTYP =NONE    
 MULT  =       1     ICHARG=       1     NZVAR =       0     COORD =UNIQUE  
 PP    =READ         RELWFN=NONE         LOCAL =NONE         NUMGRD=       F
 ISPHER=       1     NOSYM =       0     MAXIT =     100     UNITS =ANGS    
 PLTORB=       F     MOLPLT=       F     AIMPAC=       F     FRIEND=        
 NPRINT=       7     IREST =       0     GEOM  =INPUT   
 NORMF =       0     NORMP =       0     ITOL  =      20     ICUT  =       9
 INTTYP=BEST         GRDTYP=BEST         QMTTOL= 1.0E-06

     $SYSTEM OPTIONS
     ---------------
  REPLICATED MEMORY=     1000000 WORDS (ON EVERY NODE).
 DISTRIBUTED MEMDDI=           0 MILLION WORDS IN AGGREGATE,
 MEMDDI DISTRIBUTED OVER   8 PROCESSORS IS           0 WORDS/PROCESSOR.
 TOTAL MEMORY REQUESTED ON EACH PROCESSOR=     1000000 WORDS.
 TIMLIM=      525600.00 MINUTES, OR   365.00 DAYS.
 PARALL= T  BALTYP=  NXTVAL  KDIAG=    0  COREFL= F

          --------------
          ECP POTENTIALS
          --------------

 PARAMETERS FOR "H       " ON ATOM    1 WITH ZCORE   0 AND LMAX  0 ARE
 FOR L= 0      COEFF    N           ZETA
    1        1.00000    1        4.47692
    2        4.47692    3        2.97636
    3       -4.32112    2        3.01842

 PARAMETERS FOR "H       " ON ATOM    2 ARE THE SAME AS ATOM   1

 PARAMETERS FOR "H       " ON ATOM    3 ARE THE SAME AS ATOM   1

 PARAMETERS FOR "H       " ON ATOM    4 ARE THE SAME AS ATOM   1

 PARAMETERS FOR "H       " ON ATOM    5 ARE THE SAME AS ATOM   1

 PARAMETERS FOR "H       " ON ATOM    6 ARE THE SAME AS ATOM   1

 PARAMETERS FOR "H       " ON ATOM    7 ARE THE SAME AS ATOM   1

 PARAMETERS FOR "H       " ON ATOM    8 ARE THE SAME AS ATOM   1

 PARAMETERS FOR "H       " ON ATOM    9 ARE THE SAME AS ATOM   1

 PARAMETERS FOR "H       " ON ATOM   10 ARE THE SAME AS ATOM   1

 PARAMETERS FOR "H       " ON ATOM   11 ARE THE SAME AS ATOM   1

 PARAMETERS FOR "C       " ON ATOM   12 WITH ZCORE   2 AND LMAX  1 ARE
 FOR L= 1      COEFF    N           ZETA
    1        4.00000    1        8.35974
    2       33.43895    3        4.48362
    3      -19.17537    2        3.93831
 FOR L= 0      COEFF    N           ZETA
    1       22.55164    2        5.02992

 PARAMETERS FOR "C       " ON ATOM   13 ARE THE SAME AS ATOM  12

 PARAMETERS FOR "C       " ON ATOM   14 ARE THE SAME AS ATOM  12

 PARAMETERS FOR "C       " ON ATOM   15 ARE THE SAME AS ATOM  12

 PARAMETERS FOR "C       " ON ATOM   16 ARE THE SAME AS ATOM  12

 PARAMETERS FOR "C       " ON ATOM   17 ARE THE SAME AS ATOM  12

 PARAMETERS FOR "C       " ON ATOM   18 ARE THE SAME AS ATOM  12

 PARAMETERS FOR "N       " ON ATOM   19 WITH ZCORE   2 AND LMAX  1 ARE
 FOR L= 1      COEFF    N           ZETA
    1        5.00000    1        9.23501
    2       46.17505    3        7.66830
    3      -30.18894    2        7.34486
 FOR L= 0      COEFF    N           ZETA
    1       31.69720    2        6.99537

 PARAMETERS FOR "N       " ON ATOM   20 ARE THE SAME AS ATOM  19

 THE ECP RUN REMOVES   18 CORE ELECTRONS, AND THE SAME NUMBER OF PROTONS.
 NUMBER OF ELECTRONS KEPT IN THE CALCULATION IS =   48
 NUMBER OF OCCUPIED ORBITALS (ALPHA) KEPT IS    =   24
 NUMBER OF OCCUPIED ORBITALS (BETA ) KEPT IS    =   24
 THE ADJUSTED NUCLEAR REPULSION ENERGY=      201.6502952895
          ECP ANGULAR INTS.........     0.00 SECONDS

          ----------------
          PROPERTIES INPUT
          ----------------

     MOMENTS            FIELD           POTENTIAL          DENSITY
 IEMOM =       1   IEFLD =       0   IEPOT =       0   IEDEN =       0
 WHERE =COMASS     WHERE =NUCLEI     WHERE =NUCLEI     WHERE =NUCLEI  
 OUTPUT=BOTH       OUTPUT=BOTH       OUTPUT=BOTH       OUTPUT=BOTH    
 IEMINT=       0   IEFINT=       0                     IEDINT=       0
                                                       MORB  =       0
          EXTRAPOLATION IN EFFECT
          DIIS IN EFFECT
 ORBITAL PRINTING OPTION: NPREO=   1 315   2   1

     -------------------------------
     INTEGRAL TRANSFORMATION OPTIONS
     -------------------------------
     NWORD  =       0     CUTOFF = 1.0E-09
     MPTRAN =       0     DIRTRF =       T
     AOINTS =DUP     

          ----------------------
          INTEGRAL INPUT OPTIONS
          ----------------------
 NOPK  =       1 NORDER=       0 SCHWRZ=       T

     ------------------------------------------
     THE POINT GROUP IS C1 , NAXIS= 0, ORDER= 1
     ------------------------------------------

 -- VARIATIONAL SPACE WILL BE RESTRICTED TO PURE SPHERICAL HARMONICS ONLY --
 AFTER EXCLUDING CONTAMINANT COMBINATIONS FROM THE CARTESIAN GAUSSIAN BASIS
 SET, THE NUMBER OF SPHERICAL HARMONICS KEPT IN THE VARIATION SPACE IS  297

     DIMENSIONS OF THE SYMMETRY SUBSPACES ARE
 A   =  297

 ..... DONE SETTING UP THE RUN .....
 ON NODE 0, STEP CPU TIME =     0.02 TOTAL CPU TIME =        0.0 (    0.0 MIN)
 TOTAL WALL CLOCK TIME=        0.0 SECONDS, CPU UTILIZATION IS 100.00%

          ********************
          1 ELECTRON INTEGRALS
          ********************
 TIME TO DO ORDINARY INTEGRALS=      0.05
 TIME TO DO      ECP INTEGRALS=      0.30
 ...... END OF ONE-ELECTRON INTEGRALS ......
 ON NODE 0, STEP CPU TIME =     0.35 TOTAL CPU TIME =        0.4 (    0.0 MIN)
 TOTAL WALL CLOCK TIME=        0.0 SECONDS, CPU UTILIZATION IS 100.00%

          -------------
          GUESS OPTIONS
          -------------
          GUESS =HUCKEL            NORB  =       0          NORDER=       0
          MIX   =       F          PRTMO =       F          PUNMO =       F
          TOLZ  = 1.0E-08          TOLE  = 1.0E-05
          SYMDEN=       F          PURIFY=       F

 INITIAL GUESS ORBITALS GENERATED BY HUCKEL   ROUTINE.
 HUCKEL GUESS REQUIRES    739025 WORDS.

 STATISTICS FOR GENERATION OF SYMMETRY ORBITAL -Q- MATRIX
 NUMBER OF CARTESIAN ATOMIC ORBITALS=        315
 NUMBER OF SPHERICAL CONTAMINANTS DROPPED=    18
 NUMBER OF LINEARLY DEPENDENT MOS DROPPED=     0
 TOTAL NUMBER OF MOS IN VARIATION SPACE=     297

                    * * * * * WARNING * * * * *
 POSSIBLE LINEAR DEPENDENCE PROBLEMS DETECTED, INPUT QMTTOL= 1.0E-06,
 WITH     6 OVERLAP EIGENVALUES LYING BETWEEN 1.0E-05 AND QMTTOL.
 IF YOU EXPERIENCE SCF CONVERGENCE DIFFICULTIES WITH THE DENSITY ALMOST BUT
 NOT QUITE CONVERGED, YOU MAY NEED TO LOOSEN -QMTTOL- BY A FACTOR 5 TO 10.

 SYMMETRIES FOR INITIAL GUESS ORBITALS FOLLOW.   BOTH SET(S).
    24 ORBITALS ARE OCCUPIED (    0 CORE ORBITALS).
     1=A        2=A        3=A        4=A        5=A        6=A        7=A   
     8=A        9=A       10=A       11=A       12=A       13=A       14=A   
    15=A       16=A       17=A       18=A       19=A       20=A       21=A   
    22=A       23=A       24=A       25=A       26=A       27=A       28=A   
    29=A       30=A       31=A       32=A       33=A       34=A   
 ...... END OF INITIAL ORBITAL SELECTION ......
 ON NODE 0, STEP CPU TIME =     0.24 TOTAL CPU TIME =        0.6 (    0.0 MIN)
 TOTAL WALL CLOCK TIME=        0.0 SECONDS, CPU UTILIZATION IS 100.00%

                    ----------------------
                    AO INTEGRAL TECHNOLOGY
                    ----------------------
     S,P,L SHELL ROTATED AXIS INTEGRALS, REPROGRAMMED BY
        KAZUYA ISHIMURA (IMS) AND JOSE SIERRA (SYNSTAR).
     S,P,D,L SHELL ROTATED AXIS INTEGRALS PROGRAMMED BY
        KAZUYA ISHIMURA (INSTITUTE FOR MOLECULAR SCIENCE).
     S,P,D,F,G SHELL TO TOTAL QUARTET ANGULAR MOMENTUM SUM 5,
        ERIC PROGRAM BY GRAHAM FLETCHER (ELORET AND NASA ADVANCED
        SUPERCOMPUTING DIVISION, AMES RESEARCH CENTER).
     S,P,D,F,G,L SHELL GENERAL RYS QUADRATURE PROGRAMMED BY
        MICHEL DUPUIS (PACIFIC NORTHWEST NATIONAL LABORATORY).

          --------------------
          2 ELECTRON INTEGRALS
          --------------------

 DIRECT SCF METHOD SKIPS INTEGRAL STORAGE ON DISK.
 DIRECT TRANSFORMATION SKIPS AO INTEGRAL STORAGE ON DISK.
  ...... END OF TWO-ELECTRON INTEGRALS .....
 ON NODE 0, STEP CPU TIME =     0.01 TOTAL CPU TIME =        0.6 (    0.0 MIN)
 TOTAL WALL CLOCK TIME=        0.0 SECONDS, CPU UTILIZATION IS 100.00%

          --------------------------
                 RHF SCF CALCULATION
          --------------------------

     NUCLEAR ENERGY =       201.6502952895
     MAXIT =  100     NPUNCH=    2
     EXTRAP=T  DAMP=F  SHIFT=F  RSTRCT=F  DIIS=T  DEM=F  SOSCF=F
     DENSITY MATRIX CONV=  2.00E-05
     MEMORY REQUIRED FOR RHF STEP=    766027 WORDS.

 DIRECT SCF CALCULATION, SCHWRZ=T   FDIFF=T,  DIRTHR=  0.00E+00 NITDIR=10
 SCHWARZ INEQUALITY OVERHEAD:     49046 INTEGRALS, T=        0.04

                                                                                   NONZERO     BLOCKS
 ITER EX DEM     TOTAL ENERGY        E CHANGE  DENSITY CHANGE    DIIS ERROR      INTEGRALS    SKIPPED
          * * *   INITIATING DIIS PROCEDURE   * * *
   1  0  0      -63.4143845698   -63.4143845698   9.917009981   0.212010557      549758381    2147015
   2  1  0      -64.1920902267    -0.7777056569   1.621319121   0.104961983      550259000    2164084
   3  2  0      -64.2760193909    -0.0839291642   0.815755479   0.035919486      547953964    2587974
   4  3  0      -64.2944609908    -0.0184415999   0.785429368   0.008551069      544274648    3017756
   5  4  0      -64.2956897884    -0.0012287977   0.063446431   0.004285279      539813170    3448273
   6  5  0      -64.2958706221    -0.0001808337   0.021897571   0.001392284      532486473    4078174
   7  6  0      -64.2958909117    -0.0000202896   0.028361888   0.000459399      521519502    4893937
   8  7  0      -64.2958970022    -0.0000060904   0.002495497   0.000075161      516373297    5231293
   9  8  0      -64.2958973097    -0.0000003075   0.001557512   0.000020558      495190368    6568039
  10  9  0      -64.2958973283    -0.0000000186   0.000526004   0.000005624      472671116    7855314
  11 10  0      -64.2958973269     0.0000000013   0.000116390   0.000000867      441979463    9457939
  12 11  0      -64.2958973212     0.0000000058   0.000114610   0.000000448      431093533    9849635
  13 12  0      -64.2958973206     0.0000000006   0.000050980   0.000000546      426283927    9985975
  14 13  0      -64.2958973134     0.0000000072   0.000043439   0.000000268      415086715   10611227
  15 14  0      -64.2958973028     0.0000000106   0.000008134   0.000000626      403142223   11177164
  16 15  0      -64.2958973046    -0.0000000018   0.000010777   0.000000569      332996892   14949134

          -----------------
          DENSITY CONVERGED
          -----------------
     TIME TO FORM FOCK OPERATORS=     455.3 SECONDS (      28.5 SEC/ITER)
     FOCK TIME ON FIRST ITERATION=      33.7, LAST ITERATION=      16.9
     TIME TO SOLVE SCF EQUATIONS=       1.0 SECONDS (       0.1 SEC/ITER)

 FINAL RHF ENERGY IS      -64.2958973046 AFTER  16 ITERATIONS

          ------------
          EIGENVECTORS
          ------------

                      1          2          3          4          5
                   -1.4013    -1.4013    -1.2601    -1.2126    -1.1409
                     A          A          A          A          A   
    1  H  1  S    0.004241   0.000000   0.097088   0.000000  -0.090080
    2  H  1  S   -0.041503   0.000000  -0.115016   0.000000   0.001321
    3  H  1  X    0.000000   0.000000   0.000000   0.000000   0.000000
    4  H  1  Y    0.000000   0.000203   0.000000   0.001166   0.000000
    5  H  1  Z    0.000802   0.000000   0.014854   0.000000  -0.011314
    6  H  1  S    0.028851   0.000000  -0.064965   0.000000   0.100096
    7  H  1  X    0.000000   0.000000   0.000000   0.000000   0.000000
    8  H  1  Y    0.000000  -0.008249   0.000000   0.006676   0.000000
    9  H  1  Z    0.006795   0.000000   0.009446   0.000000  -0.001582
   10  H  2  S    0.008762   0.007343   0.103983  -0.082832  -0.030361
   11  H  2  S   -0.032149  -0.010675  -0.117945   0.056124  -0.017688
   12  H  2  X    0.000000   0.000000   0.000000   0.000000   0.000000
   13  H  2  Y    0.000339   0.000379   0.000009   0.001227  -0.002899
   14  H  2  Z   -0.001502  -0.001294  -0.014176   0.010434   0.003867
   15  H  2  S    0.021952  -0.005575  -0.013613   0.105721   0.006811
   16  H  2  X    0.000000   0.000000   0.000000   0.000000   0.000000
   17  H  2  Y   -0.004548  -0.016632   0.000747   0.019244  -0.002088
   18  H  2  Z   -0.001272   0.002241  -0.010355   0.006105  -0.005232
   19  H  3  S    0.008762  -0.007343   0.103983   0.082832  -0.030361
   20  H  3  S   -0.032149   0.010675  -0.117945  -0.056124  -0.017688
   21  H  3  X    0.000000   0.000000   0.000000   0.000000   0.000000
   22  H  3  Y   -0.000339   0.000379  -0.000009   0.001227   0.002899
   23  H  3  Z   -0.001502   0.001294  -0.014176  -0.010434   0.003867
   24  H  3  S    0.021953   0.005575  -0.013613  -0.105720   0.006811
   25  H  3  X    0.000000   0.000000   0.000000   0.000000   0.000000
   26  H  3  Y    0.004548  -0.016632  -0.000747   0.019244   0.002089
   27  H  3  Z   -0.001272  -0.002241  -0.010355  -0.006105  -0.005232
   28  H  4  S    0.022097   0.022073   0.058996  -0.088473   0.070446
   29  H  4  S   -0.020082  -0.013090  -0.057249   0.036019  -0.006536
   30  H  4  X    0.000000   0.000000   0.000000   0.000000   0.000000
   31  H  4  Y    0.000074   0.000231   0.001695  -0.001826  -0.000202
   32  H  4  Z    0.004242   0.004068   0.008972  -0.012364   0.009094
   33  H  4  S   -0.019305  -0.033863   0.042180   0.057884  -0.056489
   34  H  4  X    0.000000   0.000000   0.000000   0.000000   0.000000
   35  H  4  Y   -0.000693  -0.005021  -0.001642   0.007440  -0.004107
   36  H  4  Z    0.000290  -0.000015   0.004109  -0.003607   0.003451
   37  H  5  S    0.022097  -0.022073   0.058996   0.088473   0.070446
   38  H  5  S   -0.020082   0.013090  -0.057249  -0.036019  -0.006536
   39  H  5  X    0.000000   0.000000   0.000000   0.000000   0.000000
   40  H  5  Y   -0.000074   0.000231  -0.001695  -0.001826   0.000202
   41  H  5  Z    0.004242  -0.004068   0.008972   0.012364   0.009094
   42  H  5  S   -0.019305   0.033863   0.042180  -0.057884  -0.056489
   43  H  5  X    0.000000   0.000000   0.000000   0.000000   0.000000
   44  H  5  Y    0.000693  -0.005021   0.001642   0.007440   0.004107
   45  H  5  Z    0.000290   0.000015   0.004109   0.003607   0.003451
   46  H  6  S    0.053758   0.054238   0.024034  -0.053095   0.082720
   47  H  6  S   -0.052680  -0.038387  -0.028779   0.018381  -0.001955
   48  H  6  X    0.000000   0.000000   0.000000   0.000000   0.000000
   49  H  6  Y   -0.001704  -0.001670   0.001070  -0.002033   0.002058
   50  H  6  Z   -0.007780  -0.007926  -0.002976   0.006422  -0.009333
   51  H  6  S   -0.004319  -0.009494   0.048499  -0.009603   0.006014
   52  H  6  X    0.000000   0.000000   0.000000   0.000000   0.000000
   53  H  6  Y   -0.011058  -0.016571  -0.001234   0.004337   0.011775
   54  H  6  Z   -0.005531  -0.003488  -0.001770   0.000295   0.002736
   55  H  7  S    0.053758  -0.054238   0.024034   0.053095   0.082720
   56  H  7  S   -0.052680   0.038387  -0.028779  -0.018381  -0.001955
   57  H  7  X    0.000000   0.000000   0.000000   0.000000   0.000000
   58  H  7  Y    0.001704  -0.001670  -0.001070  -0.002033  -0.002058
   59  H  7  Z   -0.007780   0.007926  -0.002976  -0.006422  -0.009333
   60  H  7  S   -0.004319   0.009494   0.048499   0.009603   0.006015
   61  H  7  X    0.000000   0.000000   0.000000   0.000000   0.000000
   62  H  7  Y    0.011058  -0.016571   0.001234   0.004337  -0.011775
   63  H  7  Z   -0.005531   0.003488  -0.001770  -0.000295   0.002736
   64  H  8  S    0.128346   0.128927  -0.035847   0.060213  -0.081908
   65  H  8  S   -0.006719  -0.004257  -0.004348   0.009205   0.012109
   66  H  8  X    0.000000   0.000000   0.000000   0.000000   0.000000
   67  H  8  Y    0.005215   0.005197  -0.001044   0.001255  -0.000342
   68  H  8  Z    0.017964   0.017901  -0.004145   0.006792  -0.008143
   69  H  8  S   -0.002734  -0.002804  -0.006514  -0.009005   0.003548
   70  H  8  X    0.000000   0.000000   0.000000   0.000000   0.000000
   71  H  8  Y    0.006607   0.006227  -0.000797  -0.002646   0.000448
   72  H  8  Z   -0.002607  -0.004420   0.006867  -0.008923   0.001851
   73  H  9  S    0.128346  -0.128927  -0.035847  -0.060213  -0.081908
   74  H  9  S   -0.006719   0.004257  -0.004348  -0.009205   0.012109
   75  H  9  X    0.000000   0.000000   0.000000   0.000000   0.000000
   76  H  9  Y   -0.005215   0.005197   0.001044   0.001255   0.000342
   77  H  9  Z    0.017964  -0.017901  -0.004145  -0.006792  -0.008143
   78  H  9  S   -0.002734   0.002804  -0.006514   0.009005   0.003548
   79  H  9  X    0.000000   0.000000   0.000000   0.000000   0.000000
   80  H  9  Y   -0.006607   0.006227   0.000797  -0.002646  -0.000448
   81  H  9  Z   -0.002607   0.004420   0.006867   0.008923   0.001851
   82  H 10  S    0.127261   0.128039  -0.043777   0.075715  -0.102354
   83  H 10  S    0.019447   0.012639   0.008015   0.001707   0.008847
   84  H 10  X    0.000000   0.000000   0.000000   0.000000   0.000000
   85  H 10  Y    0.015359   0.015317  -0.003959   0.006994  -0.007804
   86  H 10  Z   -0.010464  -0.010380   0.003585  -0.006138   0.007703
   87  H 10  S   -0.003076  -0.003559   0.003007   0.003242  -0.006269
   88  H 10  X    0.000000   0.000000   0.000000   0.000000   0.000000
   89  H 10  Y   -0.010712  -0.008184  -0.001905  -0.000408   0.001115
   90  H 10  Z    0.010607   0.009762  -0.002221  -0.000931   0.002491
   91  H 11  S    0.127261  -0.128039  -0.043777  -0.075715  -0.102354
   92  H 11  S    0.019447  -0.012639   0.008015  -0.001707   0.008847
   93  H 11  X    0.000000   0.000000   0.000000   0.000000   0.000000
   94  H 11  Y   -0.015359   0.015317   0.003959   0.006994   0.007804
   95  H 11  Z   -0.010464   0.010380   0.003585   0.006138   0.007703
   96  H 11  S   -0.003076   0.003559   0.003007  -0.003242  -0.006269
   97  H 11  X    0.000000   0.000000   0.000000   0.000000   0.000000
   98  H 11  Y    0.010712  -0.008184   0.001904  -0.000408  -0.001115
   99  H 11  Z    0.010607  -0.009762  -0.002221   0.000931   0.002491
  100  C 12  S    0.017348   0.000000   0.469833   0.000000  -0.433719
  101  C 12  S   -0.249900   0.000000   0.256665   0.000001   1.190528
  102  C 12  X    0.000000   0.000000   0.000000   0.000000   0.000000
  103  C 12  Y    0.000000   0.006189   0.000000  -0.130204   0.000000
  104  C 12  Z   -0.002057   0.000000  -0.079602   0.000000   0.070341
  105  C 12  X    0.000000   0.000000   0.000000   0.000000   0.000000
  106  C 12  Y    0.000000  -0.513302   0.000000   0.494916   0.000000
  107  C 12  Z    0.008733   0.000000  -0.298100   0.000000  -0.311980
  108  C 12 XX   -0.000068   0.000000  -0.010269   0.000000   0.008853
  109  C 12 YY    0.001032   0.000000   0.016498   0.000000  -0.004701
  110  C 12 ZZ   -0.000965   0.000000  -0.006229   0.000000  -0.004152
  111  C 12 XY    0.000000   0.000000   0.000000   0.000000   0.000000
  112  C 12 XZ    0.000000   0.000000   0.000000   0.000000   0.000000
  113  C 12 YZ    0.000000   0.000970   0.000000   0.009784   0.000000
  114  C 12  S    0.068381   0.000001  -0.368040  -0.000001   0.470351
  115  C 12  X    0.000000   0.000000   0.000000   0.000000   0.000000
  116  C 12  Y    0.000000   0.132311   0.000001  -0.436757  -0.000002
  117  C 12  Z   -0.024297   0.000000   0.022626   0.000000  -0.124529
  118  C 12 XX    0.010854   0.000000   0.009866   0.000000  -0.096005
  119  C 12 YY   -0.064738   0.000000  -0.204399   0.000000   0.111713
  120  C 12 ZZ    0.053884   0.000000   0.194533   0.000000  -0.015708
  121  C 12 XY    0.000000   0.000000   0.000000   0.000000   0.000000
  122  C 12 XZ    0.000000   0.000000   0.000000   0.000000   0.000000
  123  C 12 YZ    0.000000   0.107786   0.000000  -0.105671   0.000000
  124  C 13  S    0.035489   0.030544   0.459333  -0.366489  -0.134749
  125  C 13  S    0.012707   0.200189   0.111796  -0.084444  -0.062404
  126  C 13  X    0.000000   0.000000   0.000000   0.000000   0.000000
  127  C 13  Y    0.011708   0.013868  -0.031637  -0.097890   0.202813
  128  C 13  Z    0.003082   0.002779   0.056002  -0.041260  -0.024563
  129  C 13  X    0.000000   0.000000   0.000000   0.000000   0.000000
  130  C 13  Y   -0.129542  -0.416898   0.209863   0.397041   0.401703
  131  C 13  Z    0.071702   0.102123   0.234058  -0.083716  -0.024613
  132  C 13 XX   -0.000846  -0.000760  -0.012185   0.009841   0.003264
  133  C 13 YY    0.002749   0.002482   0.017280  -0.011066  -0.001268
  134  C 13 ZZ   -0.001903  -0.001722  -0.005095   0.001225  -0.001996
  135  C 13 XY    0.000000   0.000000   0.000000   0.000000   0.000000
  136  C 13 XZ    0.000000   0.000000   0.000000   0.000000   0.000000
  137  C 13 YZ   -0.000180  -0.000425  -0.002534  -0.005569   0.015227
  138  C 13  S    0.140844   0.068252  -0.215350   0.367515   0.070771
  139  C 13  X    0.000000   0.000000   0.000000   0.000000   0.000000
  140  C 13  Y    0.062202   0.148987  -0.144833  -0.346268   0.172085
  141  C 13  Z    0.023715   0.011695   0.002781   0.052619  -0.003534
  142  C 13 XX   -0.003833  -0.011572   0.007752  -0.013267  -0.005421
  143  C 13 YY   -0.046579  -0.016636  -0.180677   0.083053  -0.001266
  144  C 13 ZZ    0.050412   0.028208   0.172925  -0.069786   0.006688
  145  C 13 XY    0.000000   0.000000   0.000000   0.000000   0.000000
  146  C 13 XZ    0.000000   0.000000   0.000000   0.000000   0.000000
  147  C 13 YZ   -0.030397  -0.101860   0.039899   0.097469   0.069919
  148  C 14  S    0.035489  -0.030544   0.459333   0.366489  -0.134749
  149  C 14  S    0.012706  -0.200190   0.111794   0.084444  -0.062406
  150  C 14  X    0.000000   0.000000   0.000000   0.000000   0.000000
  151  C 14  Y   -0.011708   0.013868   0.031637  -0.097890  -0.202813
  152  C 14  Z    0.003082  -0.002779   0.056002   0.041260  -0.024563
  153  C 14  X    0.000000   0.000000   0.000000   0.000000   0.000000
  154  C 14  Y    0.129542  -0.416897  -0.209862   0.397041  -0.401702
  155  C 14  Z    0.071702  -0.102123   0.234057   0.083716  -0.024613
  156  C 14 XX   -0.000846   0.000760  -0.012185  -0.009841   0.003264
  157  C 14 YY    0.002749  -0.002482   0.017280   0.011066  -0.001268
  158  C 14 ZZ   -0.001903   0.001722  -0.005095  -0.001225  -0.001996
  159  C 14 XY    0.000000   0.000000   0.000000   0.000000   0.000000
  160  C 14 XZ    0.000000   0.000000   0.000000   0.000000   0.000000
  161  C 14 YZ    0.000180  -0.000425   0.002534  -0.005569  -0.015227
  162  C 14  S    0.140845  -0.068253  -0.215348  -0.367514   0.070768
  163  C 14  X    0.000000   0.000000   0.000000   0.000000   0.000000
  164  C 14  Y   -0.062203   0.148986   0.144831  -0.346268  -0.172081
  165  C 14  Z    0.023715  -0.011695   0.002782  -0.052619  -0.003535
  166  C 14 XX   -0.003833   0.011572   0.007752   0.013267  -0.005421
  167  C 14 YY   -0.046579   0.016636  -0.180677  -0.083053  -0.001266
  168  C 14 ZZ    0.050412  -0.028208   0.172925   0.069786   0.006687
  169  C 14 XY    0.000000   0.000000   0.000000   0.000000   0.000000
  170  C 14 XZ    0.000000   0.000000   0.000000   0.000000   0.000000
  171  C 14 YZ    0.030397  -0.101860  -0.039899   0.097469  -0.069919
  172  C 15  S    0.103155   0.104148   0.289782  -0.438506   0.342409
  173  C 15  S    0.191846   0.246549  -0.130980   0.159226  -0.845395
  174  C 15  X    0.000000   0.000000   0.000000   0.000000   0.000000
  175  C 15  Y    0.037031   0.037623  -0.060282   0.031559   0.096628
  176  C 15  Z   -0.019441  -0.019404  -0.047001   0.076334  -0.067547
  177  C 15  X    0.000000   0.000000   0.000000   0.000000   0.000000
  178  C 15  Y   -0.069569  -0.233703   0.217724   0.338342   0.054154
  179  C 15  Z   -0.123224  -0.109501  -0.122586  -0.002832   0.214681
  180  C 15 XX   -0.002686  -0.002669  -0.006417   0.009583  -0.006212
  181  C 15 YY    0.006874   0.006755   0.009868  -0.010408   0.001309
  182  C 15 ZZ   -0.004189  -0.004086  -0.003451   0.000825   0.004902
  183  C 15 XY    0.000000   0.000000   0.000000   0.000000   0.000000
  184  C 15 XZ    0.000000   0.000000   0.000000   0.000000   0.000000
  185  C 15 YZ   -0.003560  -0.003491   0.002641  -0.001672  -0.008662
  186  C 15  S   -0.178659  -0.262905  -0.069472   0.376973  -0.260553
  187  C 15  X    0.000000   0.000000   0.000000   0.000000   0.000000
  188  C 15  Y    0.056026   0.118481  -0.157653  -0.196829   0.059105
  189  C 15  Z    0.026865   0.035975   0.006389  -0.029208   0.070197
  190  C 15 XX   -0.002724  -0.003469   0.019940  -0.037050   0.069037
  191  C 15 YY   -0.047163  -0.028830  -0.130835   0.091710  -0.082112
  192  C 15 ZZ    0.049887   0.032299   0.110895  -0.054660   0.013076
  193  C 15 XY    0.000000   0.000000   0.000000   0.000000   0.000000
  194  C 15 XZ    0.000000   0.000000   0.000000   0.000000   0.000000
  195  C 15 YZ    0.018476   0.058700  -0.002683  -0.104514   0.022093
  196  C 16  S    0.103155  -0.104148   0.289782   0.438506   0.342409
  197  C 16  S    0.191846  -0.246548  -0.130980  -0.159226  -0.845396
  198  C 16  X    0.000000   0.000000   0.000000   0.000000   0.000000
  199  C 16  Y   -0.037031   0.037623   0.060282   0.031559  -0.096628
  200  C 16  Z   -0.019441   0.019404  -0.047001  -0.076334  -0.067547
  201  C 16  X    0.000000   0.000000   0.000000   0.000000   0.000000
  202  C 16  Y    0.069570  -0.233703  -0.217722   0.338341  -0.054152
  203  C 16  Z   -0.123224   0.109501  -0.122586   0.002832   0.214682
  204  C 16 XX   -0.002686   0.002669  -0.006417  -0.009583  -0.006212
  205  C 16 YY    0.006874  -0.006755   0.009868   0.010408   0.001309
  206  C 16 ZZ   -0.004189   0.004086  -0.003451  -0.000825   0.004902
  207  C 16 XY    0.000000   0.000000   0.000000   0.000000   0.000000
  208  C 16 XZ    0.000000   0.000000   0.000000   0.000000   0.000000
  209  C 16 YZ    0.003560  -0.003491  -0.002641  -0.001672   0.008662
  210  C 16  S   -0.178660   0.262904  -0.069474  -0.376974  -0.260548
  211  C 16  X    0.000000   0.000000   0.000000   0.000000   0.000000
  212  C 16  Y   -0.056026   0.118482   0.157653  -0.196828  -0.059105
  213  C 16  Z    0.026865  -0.035975   0.006390   0.029208   0.070196
  214  C 16 XX   -0.002724   0.003469   0.019940   0.037050   0.069037
  215  C 16 YY   -0.047163   0.028830  -0.130835  -0.091710  -0.082112
  216  C 16 ZZ    0.049887  -0.032299   0.110895   0.054660   0.013075
  217  C 16 XY    0.000000   0.000000   0.000000   0.000000   0.000000
  218  C 16 XZ    0.000000   0.000000   0.000000   0.000000   0.000000
  219  C 16 YZ   -0.018476   0.058700   0.002683  -0.104514  -0.022094
  220  C 17  S    0.323745   0.325545   0.088820  -0.208224   0.317682
  221  C 17  S   -0.048281   0.084844  -0.117346  -0.406520   0.215263
  222  C 17  X    0.000000   0.000000   0.000000   0.000000   0.000000
  223  C 17  Y    0.119283   0.119399  -0.092522   0.153616  -0.150917
  224  C 17  Z    0.058061   0.057826   0.014610  -0.032161   0.039681
  225  C 17  X    0.000000   0.000000   0.000000   0.000000   0.000000
  226  C 17  Y    0.066226  -0.008201   0.123438   0.130762  -0.112294
  227  C 17  Z    0.018346   0.056377   0.020473  -0.160755   0.070798
  228  C 17 XX   -0.011911  -0.011902  -0.001698   0.004855  -0.007259
  229  C 17 YY    0.017543   0.017506   0.001587  -0.002948   0.001901
  230  C 17 ZZ   -0.005632  -0.005604   0.000111  -0.001907   0.005357
  231  C 17 XY    0.000000   0.000000   0.000000   0.000000   0.000000
  232  C 17 XZ    0.000000   0.000000   0.000000   0.000000   0.000000
  233  C 17 YZ    0.008972   0.008847  -0.006792   0.012640  -0.012995
  234  C 17  S    0.014626  -0.070166   0.353779   0.313127  -0.080617
  235  C 17  X    0.000000   0.000000   0.000000   0.000000   0.000000
  236  C 17  Y    0.011343   0.015995  -0.064977   0.019646   0.010684
  237  C 17  Z    0.007688  -0.009364   0.065521   0.024353   0.004385
  238  C 17 XX    0.001015  -0.001769   0.000294   0.012968  -0.001576
  239  C 17 YY   -0.049706  -0.038783  -0.039034   0.022845   0.000089
  240  C 17 ZZ    0.048691   0.040552   0.038740  -0.035814   0.001488
  241  C 17 XY    0.000000   0.000000   0.000000   0.000000   0.000000
  242  C 17 XZ    0.000000   0.000000   0.000000   0.000000   0.000000
  243  C 17 YZ    0.003627  -0.022788   0.016641   0.045853  -0.012858
  244  C 18  S    0.323745  -0.325545   0.088820   0.208224   0.317682
  245  C 18  S   -0.048281  -0.084843  -0.117343   0.406519   0.215266
  246  C 18  X    0.000000   0.000000   0.000000   0.000000   0.000000
  247  C 18  Y   -0.119283   0.119399   0.092522   0.153616   0.150917
  248  C 18  Z    0.058061  -0.057826   0.014610   0.032161   0.039681
  249  C 18  X    0.000000   0.000000   0.000000   0.000000   0.000000
  250  C 18  Y   -0.066226  -0.008201  -0.123436   0.130762   0.112296
  251  C 18  Z    0.018346  -0.056377   0.020473   0.160755   0.070799
  252  C 18 XX   -0.011911   0.011902  -0.001698  -0.004855  -0.007259
  253  C 18 YY    0.017543  -0.017506   0.001587   0.002948   0.001901
  254  C 18 ZZ   -0.005632   0.005604   0.000111   0.001907   0.005357
  255  C 18 XY    0.000000   0.000000   0.000000   0.000000   0.000000
  256  C 18 XZ    0.000000   0.000000   0.000000   0.000000   0.000000
  257  C 18 YZ   -0.008972   0.008847   0.006792   0.012640   0.012995
  258  C 18  S    0.014626   0.070166   0.353779  -0.313126  -0.080618
  259  C 18  X    0.000000   0.000000   0.000000   0.000000   0.000000
  260  C 18  Y   -0.011343   0.015995   0.064976   0.019646  -0.010684
  261  C 18  Z    0.007688   0.009364   0.065521  -0.024353   0.004385
  262  C 18 XX    0.001015   0.001769   0.000294  -0.012968  -0.001577
  263  C 18 YY   -0.049706   0.038783  -0.039034  -0.022845   0.000089
  264  C 18 ZZ    0.048691  -0.040552   0.038740   0.035814   0.001488
  265  C 18 XY    0.000000   0.000000   0.000000   0.000000   0.000000
  266  C 18 XZ    0.000000   0.000000   0.000000   0.000000   0.000000
  267  C 18 YZ   -0.003627  -0.022788  -0.016641   0.045853   0.012858
  268  N 19  S    0.531523   0.532239  -0.121560   0.183868  -0.196680
  269  N 19  S   -0.217988  -0.197624   0.028974  -0.099519   0.082493
  270  N 19  X    0.000000   0.000000   0.000000   0.000000   0.000000
  271  N 19  Y   -0.067022  -0.066874  -0.016697   0.049625  -0.106682
  272  N 19  Z   -0.023066  -0.023111   0.002046   0.001343  -0.016098
  273  N 19  X    0.000000   0.000000   0.000000   0.000000   0.000000
  274  N 19  Y    0.034843   0.029387   0.009415  -0.005614   0.010064
  275  N 19  Z    0.005873   0.005774  -0.005379   0.011769  -0.007229
  276  N 19 XX   -0.009804  -0.009890   0.001850  -0.002585   0.002310
  277  N 19 YY    0.009513   0.009506   0.000091  -0.001546   0.003914
  278  N 19 ZZ    0.000291   0.000384  -0.001941   0.004132  -0.006224
  279  N 19 XY    0.000000   0.000000   0.000000   0.000000   0.000000
  280  N 19 XZ    0.000000   0.000000   0.000000   0.000000   0.000000
  281  N 19 YZ    0.003573   0.003623  -0.000487  -0.000334   0.002842
  282  N 19  S   -0.095434  -0.084039  -0.019008  -0.111741   0.039259
  283  N 19  X    0.000000   0.000000   0.000000   0.000000   0.000000
  284  N 19  Y    0.017235   0.013897   0.019829   0.008631   0.003231
  285  N 19  Z   -0.007843  -0.007768   0.001653   0.027481  -0.013464
  286  N 19 XX    0.017665   0.018153  -0.004486   0.005916  -0.006063
  287  N 19 YY   -0.017723  -0.016499   0.002483  -0.001350   0.000397
  288  N 19 ZZ    0.000058  -0.001653   0.002004  -0.004565   0.005666
[...]
            139  C 13  X     -0.01583     0.01757
            140  C 13  Y      0.46914     0.04024
            141  C 13  Z     -0.05739     0.02262
            142  C 13 XX      0.01791     0.00077
            143  C 13 YY     -0.00978     0.11189
            144  C 13 ZZ      0.06542     0.09481
            145  C 13 XY     -0.00223     0.15138
            146  C 13 XZ      0.14282     0.01365
            147  C 13 YZ      0.00000     0.12003
            148  C 14  S      1.56072     0.32677
            149  C 14  S     -0.68415     0.11074
            150  C 14  X      0.74470     0.43971
            151  C 14  Y      1.21076     0.76400
            152  C 14  Z      1.23288     0.79587
            153  C 14  X     -0.03489     0.14542
            154  C 14  Y     -0.08925     0.16274
            155  C 14  Z      0.04328     0.19270
            156  C 14 XX      0.02804     0.04650
            157  C 14 YY      0.01478     0.17260
            158  C 14 ZZ      0.02779     0.14834
            159  C 14 XY      0.00364     0.04591
            160  C 14 XZ      0.02519     0.00610
            161  C 14 YZ      0.00000     0.05283
            162  C 14  S     -0.39673     0.03769
            163  C 14  X     -0.01583     0.01757
            164  C 14  Y      0.46914     0.04024
            165  C 14  Z     -0.05739     0.02262
            166  C 14 XX      0.01791     0.00077
            167  C 14 YY     -0.00978     0.11189
            168  C 14 ZZ      0.06542     0.09481
            169  C 14 XY     -0.00223     0.15138
            170  C 14 XZ      0.14282     0.01365
            171  C 14 YZ      0.00000     0.12003
            172  C 15  S      1.49235     0.31123
            173  C 15  S     -1.12703     0.11148
            174  C 15  X      1.14631     0.70746
            175  C 15  Y      1.11814     0.71597
            176  C 15  Z      1.17841     0.76809
            177  C 15  X     -0.01823     0.19475
            178  C 15  Y     -0.13337     0.16170
            179  C 15  Z     -0.23129     0.19777
            180  C 15 XX      0.02356     0.04497
            181  C 15 YY      0.01220     0.16729
            182  C 15 ZZ      0.00713     0.14697
            183  C 15 XY      0.00569     0.01218
            184  C 15 XZ      0.02838     0.00773
            185  C 15 YZ      0.00000     0.06384
            186  C 15  S     -0.59421     0.03786
            187  C 15  X     -0.00464     0.01771
            188  C 15  Y      0.29418     0.03527
            189  C 15  Z     -0.01441     0.02300
            190  C 15 XX      0.03231     0.00036
            191  C 15 YY      0.00066     0.09516
            192  C 15 ZZ      0.01949     0.09703
            193  C 15 XY     -0.00143     0.05544
            194  C 15 XZ      0.06934     0.01573
            195  C 15 YZ      0.00000     0.11610
            196  C 16  S      1.49235     0.31123
            197  C 16  S     -1.12703     0.11148
            198  C 16  X      1.14631     0.70746
            199  C 16  Y      1.11814     0.71597
            200  C 16  Z      1.17841     0.76809
            201  C 16  X     -0.01823     0.19475
            202  C 16  Y     -0.13337     0.16170
            203  C 16  Z     -0.23129     0.19777
            204  C 16 XX      0.02356     0.04497
            205  C 16 YY      0.01220     0.16729
            206  C 16 ZZ      0.00713     0.14697
            207  C 16 XY      0.00569     0.01218
            208  C 16 XZ      0.02838     0.00773
            209  C 16 YZ      0.00000     0.06384
            210  C 16  S     -0.59421     0.03786
            211  C 16  X     -0.00464     0.01771
            212  C 16  Y      0.29418     0.03527
            213  C 16  Z     -0.01441     0.02300
            214  C 16 XX      0.03231     0.00036
            215  C 16 YY      0.00066     0.09516
            216  C 16 ZZ      0.01949     0.09703
            217  C 16 XY     -0.00143     0.05544
            218  C 16 XZ      0.06934     0.01573
            219  C 16 YZ      0.00000     0.11610
            220  C 17  S      1.52444     0.31541
            221  C 17  S     -0.08332     0.10933
            222  C 17  X      0.75761     0.44236
            223  C 17  Y      1.11693     0.68723
            224  C 17  Z      1.25424     0.79813
            225  C 17  X     -0.08325     0.13238
            226  C 17  Y      0.10114     0.14950
            227  C 17  Z     -0.22915     0.18143
            228  C 17 XX      0.03194     0.04315
            229  C 17 YY      0.02047     0.17695
            230  C 17 ZZ      0.04106     0.15428
            231  C 17 XY      0.00504     0.06984
            232  C 17 XZ      0.03034     0.00780
            233  C 17 YZ      0.00000     0.06379
            234  C 17  S     -0.11404     0.03664
            235  C 17  X      0.00176     0.01552
            236  C 17  Y      0.06500     0.03081
            237  C 17  Z      0.02357     0.01927
            238  C 17 XX      0.01266     0.00061
            239  C 17 YY      0.02166     0.12179
            240  C 17 ZZ      0.05392     0.09297
            241  C 17 XY     -0.00517     0.15130
            242  C 17 XZ      0.05282     0.01476
            243  C 17 YZ      0.00000     0.11578
            244  C 18  S      1.52444     0.31541
            245  C 18  S     -0.08332     0.10933
            246  C 18  X      0.75761     0.44236
            247  C 18  Y      1.11693     0.68723
            248  C 18  Z      1.25424     0.79813
            249  C 18  X     -0.08325     0.13238
            250  C 18  Y      0.10115     0.14950
            251  C 18  Z     -0.22915     0.18143
            252  C 18 XX      0.03194     0.04315
            253  C 18 YY      0.02047     0.17695
            254  C 18 ZZ      0.04106     0.15428
            255  C 18 XY      0.00504     0.06984
            256  C 18 XZ      0.03034     0.00780
            257  C 18 YZ      0.00000     0.06379
            258  C 18  S     -0.11404     0.03664
            259  C 18  X      0.00176     0.01552
            260  C 18  Y      0.06500     0.03081
            261  C 18  Z      0.02357     0.01927
            262  C 18 XX      0.01266     0.00061
            263  C 18 YY      0.02166     0.12179
            264  C 18 ZZ      0.05392     0.09297
            265  C 18 XY     -0.00517     0.15130
            266  C 18 XZ      0.05282     0.01476
            267  C 18 YZ      0.00000     0.11578
            268  N 19  S      1.62663     0.42274
            269  N 19  S     -0.58340     0.15283
            270  N 19  X      1.54917     1.06620
            271  N 19  Y      1.28344     0.88052
            272  N 19  Z      1.32633     0.91649
            273  N 19  X      0.08005     0.30246
            274  N 19  Y     -0.21542     0.27395
            275  N 19  Z     -0.15290     0.29889
            276  N 19 XX      0.00963     0.08104
            277  N 19 YY      0.00603     0.15691
            278  N 19 ZZ      0.00345     0.14549
            279  N 19 XY      0.00042     0.00465
            280  N 19 XZ      0.01286     0.00062
            281  N 19 YZ      0.00000     0.02834
            282  N 19  S     -0.17221     0.04225
            283  N 19  X     -0.00262     0.02339
            284  N 19  Y     -0.02223     0.03563
            285  N 19  Z     -0.04734     0.02416
            286  N 19 XX     -0.00542     0.00014
            287  N 19 YY     -0.00094     0.07141
            288  N 19 ZZ      0.01021     0.05415
            289  N 19 XY      0.00078     0.03481
            290  N 19 XZ     -0.00359     0.00371
            291  N 19 YZ      0.00000     0.10543
            292  N 20  S      1.62663     0.42274
            293  N 20  S     -0.58340     0.15283
            294  N 20  X      1.54917     1.06620
            295  N 20  Y      1.28344     0.88052
            296  N 20  Z      1.32633     0.91649
            297  N 20  X      0.08005     0.30246
            298  N 20  Y     -0.21542     0.27395
            299  N 20  Z     -0.15290     0.29889
            300  N 20 XX      0.00963     0.08104
            301  N 20 YY      0.00603     0.15691
            302  N 20 ZZ      0.00345     0.14549
            303  N 20 XY      0.00042     0.00465
            304  N 20 XZ      0.01286     0.00062
            305  N 20 YZ      0.00000     0.02834
            306  N 20  S     -0.17221     0.04225
            307  N 20  X     -0.00262     0.02339
            308  N 20  Y     -0.02223     0.03563
            309  N 20  Z     -0.04734     0.02416
            310  N 20 XX     -0.00542     0.00014
            311  N 20 YY     -0.00094     0.07141
            312  N 20 ZZ      0.01021     0.05415
            313  N 20 XY      0.00078     0.03481
            314  N 20 XZ     -0.00359     0.00371
            315  N 20 YZ      0.00000     0.10543

          ----- MULLIKEN ATOMIC OVERLAP POPULATIONS -----
          (OFF-DIAGONAL ELEMENTS NEED TO BE MULTIPLIED BY 2)

             1           2           3           4           5

    1    0.9178113
    2   -0.0030962   1.0143801
    3   -0.0030958  -0.0512777   1.0143789
    4   -0.0254244  -0.0037096  -0.0016335   0.8858229
    5   -0.0254241  -0.0016334  -0.0037098   0.0011375   0.8858226
    6    0.0009156  -0.0188574   0.0015437  -0.0040725  -0.0001710
    7    0.0009155   0.0015436  -0.0188570  -0.0001710  -0.0040725
    8    0.0016176  -0.0019596   0.0003607  -0.0083315  -0.0000424
    9    0.0016175   0.0003607  -0.0019596  -0.0000424  -0.0083315
   10   -0.0000925   0.0022730  -0.0002525  -0.0021248   0.0000114
   11   -0.0000925  -0.0002525   0.0022730   0.0000114  -0.0021249
   12    0.0255810   0.1252605   0.1252626  -0.1373693  -0.1373673
   13    0.0950000  -0.2323908  -0.0702163   0.1190999   0.0401213
   14    0.0950002  -0.0702141  -0.2323934   0.0401220   0.1190991
   15   -0.0796607   0.2263104  -0.0219282   0.0968348  -0.0114547
   16   -0.0796606  -0.0219294   0.2263131  -0.0114546   0.0968343
   17    0.0172663   0.0127387  -0.0197698   0.0946496  -0.0000604
   18    0.0172666  -0.0197699   0.0127380  -0.0000604   0.0946498
   19   -0.0000584  -0.0072808   0.0018488  -0.0055692   0.0002524
   20   -0.0000584   0.0018488  -0.0072809   0.0002524  -0.0055691

             6           7           8           9          10

    6    0.9343722
    7    0.0002879   0.9343720
    8    0.0098885  -0.0000178   0.5887163
    9   -0.0000178   0.0098885   0.0000003   0.5887163
   10    0.0010753   0.0000098  -0.0282932  -0.0000004   0.5946832
   11    0.0000098   0.0010753  -0.0000004  -0.0282932  -0.0000008
   12    0.0440677   0.0440672   0.0112071   0.0112070   0.0010689
   13   -0.1717554  -0.0164234  -0.0118138  -0.0009402  -0.0109689
   14   -0.0164238  -0.1717546  -0.0009402  -0.0118137  -0.0008944
   15    0.3262212  -0.0001105   0.0352103  -0.0000175  -0.0012397
   16   -0.0001105   0.3262196  -0.0000175   0.0352103   0.0001727
   17    0.0077361   0.0024139  -0.0321002  -0.0000548   0.0128198
   18    0.0024139   0.0077370  -0.0000548  -0.0321004   0.0000257
   19   -0.0147973  -0.0000938   0.3560518  -0.0000025   0.3938895
   20   -0.0000938  -0.0147972  -0.0000025   0.3560520  -0.0000029

            11          12          13          14          15

   11    0.5946832
   12    0.0010688  13.6480655
   13   -0.0008944  -4.3218616   9.9806786
   14   -0.0109686  -4.3218724   0.1160489   9.9806786
   15    0.0001727  -1.4455808  -2.0755784   0.6189136   7.6625526
   16   -0.0012402  -1.4455767   0.6189115  -2.0755612  -0.1603202
   17    0.0000257   0.5181068   0.2100088  -0.0566116  -1.8775472
   18    0.0128201   0.5181149  -0.0566138   0.2099926   0.0148141
   19   -0.0000029   0.0129519   0.0694151   0.0169982  -0.0045754
   20    0.3938895   0.0129515   0.0169983   0.0694154   0.0005396

            16          17          18          19          20

   16    7.6625301
   17    0.0148138   5.3174581
   18   -1.8775440   0.0106403   5.3174674
   19    0.0005396   0.3673814  -0.0002436   3.5162216
   20   -0.0045738  -0.0002436   0.3673800  -0.0000010   3.5162215

          TOTAL MULLIKEN AND LOWDIN ATOMIC POPULATIONS
       ATOM         MULL.POP.    CHARGE          LOW.POP.     CHARGE
    1 H             0.956328    0.043672         0.901614    0.098386
    2 H             0.952345    0.047655         0.884074    0.115926
    3 H             0.952344    0.047656         0.884074    0.115926
    4 H             1.037967   -0.037967         0.901535    0.098465
    5 H             1.037967   -0.037967         0.901535    0.098465
    6 H             1.102233   -0.102233         0.867652    0.132348
    7 H             1.102233   -0.102233         0.867652    0.132348
    8 H             0.919479    0.080521         0.830609    0.169391
    9 H             0.919479    0.080521         0.830609    0.169391
   10 H             0.962159    0.037841         0.829098    0.170902
   11 H             0.962159    0.037841         0.829098    0.170902
   12 C             3.289353    0.710647         4.106013   -0.106013
   13 C             4.296826   -0.296826         4.020882   -0.020882
   14 C             4.296821   -0.296821         4.020882   -0.020882
   15 C             3.303556    0.696444         4.105099   -0.105099
   16 C             3.303556    0.696444         4.105099   -0.105099
   17 C             4.599672   -0.599672         3.931028    0.068972
   18 C             4.599674   -0.599674         3.931028    0.068972
   19 N             4.702925    0.297075         5.126210   -0.126210
   20 N             4.702926    0.297074         5.126210   -0.126210

          MULLIKEN SPHERICAL HARMONIC POPULATIONS
       ATOM           S       P       D      F      G      H      I    TOTAL
    1 H             0.96   -0.01    0.00   0.00   0.00   0.00   0.00    0.96
    2 H             0.99   -0.03    0.00   0.00   0.00   0.00   0.00    0.95
    3 H             0.99   -0.03    0.00   0.00   0.00   0.00   0.00    0.95
    4 H             1.04    0.00    0.00   0.00   0.00   0.00   0.00    1.04
    5 H             1.04    0.00    0.00   0.00   0.00   0.00   0.00    1.04
    6 H             1.10    0.00    0.00   0.00   0.00   0.00   0.00    1.10
    7 H             1.10    0.00    0.00   0.00   0.00   0.00   0.00    1.10
    8 H             0.86    0.06    0.00   0.00   0.00   0.00   0.00    0.92
    9 H             0.86    0.06    0.00   0.00   0.00   0.00   0.00    0.92
   10 H             0.88    0.08    0.00   0.00   0.00   0.00   0.00    0.96
   11 H             0.88    0.08    0.00   0.00   0.00   0.00   0.00    0.96
   12 C            -0.51    3.58    0.21   0.00   0.00   0.00   0.00    3.29
   13 C             0.48    3.50    0.31   0.00   0.00   0.00   0.00    4.30
   14 C             0.48    3.50    0.31   0.00   0.00   0.00   0.00    4.30
   15 C            -0.23    3.34    0.20   0.00   0.00   0.00   0.00    3.30
   16 C            -0.23    3.34    0.20   0.00   0.00   0.00   0.00    3.30
   17 C             1.33    3.01    0.26   0.00   0.00   0.00   0.00    4.60
   18 C             1.33    3.01    0.26   0.00   0.00   0.00   0.00    4.60
   19 N             0.87    3.80    0.03   0.00   0.00   0.00   0.00    4.70
   20 N             0.87    3.80    0.03   0.00   0.00   0.00   0.00    4.70

          -------------------------------
          BOND ORDER AND VALENCE ANALYSIS     BOND ORDER THRESHOLD=0.050
          -------------------------------

                   BOND                       BOND                       BOND
  ATOM PAIR DIST  ORDER      ATOM PAIR DIST  ORDER      ATOM PAIR DIST  ORDER
    1  12  1.085  0.365        1  13  2.135  0.229        1  14  2.135  0.229
    1  15  2.728 -0.080        1  16  2.728 -0.080        1  17  4.093  0.054
    1  18  4.093  0.054        2  12  2.116  0.223        2  13  1.088  0.475
    2  15  2.122  0.128        2  17  2.596 -0.107        3  12  2.116  0.223
    3  14  1.088  0.475        3  16  2.122  0.128        3  18  2.596 -0.107
    4  13  2.146  0.298        4  15  1.085  0.386        4  17  2.133  0.162
    5  14  2.146  0.298        5  16  1.085  0.386        5  18  2.133  0.162
    6  12  4.008  0.060        6  13  2.624 -0.060        6  15  2.128  0.217
    6  17  1.085  0.699        7  12  4.008  0.060        7  14  2.624 -0.060
    7  16  2.128  0.217        7  18  1.085  0.699        8  17  2.038  0.055
    8  19  1.006  0.943        9  18  2.038  0.055        9  20  1.006  0.943
   10  17  2.033  0.071       10  19  1.004  0.999       11  18  2.033  0.071
   11  20  1.004  0.999       12  13  1.384  2.557       12  14  1.384  2.557
   12  15  2.467  1.602       12  16  2.467  1.602       12  17  3.703 -0.703
   12  18  3.703 -0.703       13  14  2.416  1.889       13  15  1.390  2.538
   13  16  3.721 -1.585       13  17  2.402  0.982       13  18  4.814  0.986
   14  15  3.721 -1.585       14  16  1.390  2.538       14  17  4.814  0.986
   14  18  2.402  0.982       15  16  4.931  0.565       15  17  1.376  1.717
   15  19  2.400  0.117       16  18  1.376  1.717       16  20  2.400  0.117
   17  18  7.206 -0.180       17  19  1.322  1.589       18  20  1.322  1.589

                       TOTAL       BONDED        FREE
      ATOM            VALENCE     VALENCE     VALENCE
    1 H                 0.811       0.811       0.000
    2 H                 0.766       0.766       0.000
    3 H                 0.766       0.766       0.000
    4 H                 0.887       0.887       0.000
    5 H                 0.887       0.887       0.000
    6 H                 0.940       0.940       0.000
    7 H                 0.940       0.940       0.000
    8 H                 1.038       1.038       0.000
    9 H                 1.038       1.038       0.000
   10 H                 1.098       1.098       0.000
   11 H                 1.098       1.098       0.000
   12 C                 7.784       7.784       0.000
   13 C                 8.395       8.395       0.000
   14 C                 8.395       8.395       0.000
   15 C                 5.702       5.702       0.000
   16 C                 5.702       5.702       0.000
   17 C                 5.392       5.392       0.000
   18 C                 5.392       5.392       0.000
   19 N                 3.647       3.647       0.000
   20 N                 3.647       3.647       0.000

          ---------------------
          ELECTROSTATIC MOMENTS
          ---------------------

 POINT   1           X           Y           Z (BOHR)    CHARGE
                 0.000000    0.000000    0.003789        1.00 (A.U.)
         DX          DY          DZ         /D/  (DEBYE)
     0.000000    0.000000   -1.378810    1.378810
 ...... END OF PROPERTY EVALUATION ......
 ON NODE 0, STEP CPU TIME =     0.32 TOTAL CPU TIME =      457.4 (    7.6 MIN)
 TOTAL WALL CLOCK TIME=      510.0 SECONDS, CPU UTILIZATION IS  89.68%
                810127  WORDS OF DYNAMIC MEMORY USED
 EXECUTION OF GAMESS TERMINATED NORMALLY Tue Sep 26 15:19:17 2017
 DDI: 1128 bytes (0.0 MB / 0 MWords) used by master data server.

 ----------------------------------------
 CPU timing information for all processes
 ========================================
 0: 456.104504 + 1.280080 = 457.384584
 1: 452.852301 + 1.344084 = 454.196385
 2: 454.352395 + 1.320082 = 455.672477
 3: 457.260577 + 1.192074 = 458.452651
 4: 454.788422 + 0.836052 = 455.624474
 5: 454.276390 + 0.824051 = 455.100441
 6: 458.924681 + 1.092068 = 460.016749
 7: 454.804423 + 1.180073 = 455.984496
 ----------------------------------------
 ddikick.x: exited gracefully.
----- accounting info -----
Tue Sep 26 15:19:20 CEST 2017
Files used on the master node lpqlx139 were:
-rw-r--r-- 1 scemama scemama  1540426 Sep 26 15:19 /dev/shm//gamess/C7.dat
-rw-r--r-- 1 scemama scemama     1793 Sep 26 15:10 /dev/shm//gamess/C7.F05
-rw-r--r-- 1 scemama scemama 27746560 Sep 26 15:19 /dev/shm//gamess/C7.F10
0.084u 0.016s 8:32.31 0.0%	0+0k 0+0io 0pf+0w
