----- GAMESS execution script -----
This job is running on host lpqlx139
under operating system Linux at Tue Sep 26 16:43:16 CEST 2017
Available scratch disk space (Kbyte units) at beginning of the job is
Filesystem     1K-blocks    Used Available Use% Mounted on
tmpfs            6592140 2721844   3870296  42% /run/shm

 Distributed Data Interface kickoff program.
 Initiating 8 compute processes on 1 nodes to run the following command:
 /usr/local/gamess/gamess.01.x C9 

          ******************************************************
          *         GAMESS VERSION = 22 FEB 2006 (R5)          *
          *             FROM IOWA STATE UNIVERSITY             *
          * M.W.SCHMIDT, K.K.BALDRIDGE, J.A.BOATZ, S.T.ELBERT, *
          *   M.S.GORDON, J.H.JENSEN, S.KOSEKI, N.MATSUNAGA,   *
          *          K.A.NGUYEN, S.J.SU, T.L.WINDUS,           *
          *       TOGETHER WITH M.DUPUIS, J.A.MONTGOMERY       *
          *         J.COMPUT.CHEM.  14, 1347-1363(1993)        *
          ***************** AMD 64 BIT VERSION *****************

     SINCE 1993, STUDENTS AND POSTDOCS WORKING AT IOWA STATE UNIVERSITY
     AND ALSO IN THEIR VARIOUS JOBS AFTER LEAVING ISU HAVE MADE IMPORTANT
     CONTRIBUTIONS TO THE CODE:
     IVANA ADAMOVIC, CHRISTINE AIKENS, YURI ALEXEEV, POOJA ARORA, ROB BELL,
     PRADIPTA BANDYOPADHYAY, BRETT BODE, GALINA CHABAN, WEI CHEN,
     CHEOL HO CHOI, PAUL DAY, TIM DUDLEY, DMITRI FEDOROV, GRAHAM FLETCHER,
     MARK FREITAG, KURT GLAESEMANN, GRANT MERRILL, TAKESHI NAGATA,
     HEATHER NETZLOFF, BOSILJKA NJEGIC, RYAN OLSON, MIKE PAK, JIM SHOEMAKER,
     LYUDMILA SLIPCHENKO, JIE SONG, TETSUYA TAKETSUGU, SIMON WEBB.

     ADDITIONAL CODE HAS BEEN PROVIDED BY COLLABORATORS IN OTHER GROUPS:
     IOWA STATE UNIVERSITY: JOE IVANIC, KLAUS RUEDENBERG
     UNIVERSITY OF TOKYO: KIMIHIKO HIRAO, HARUYUKI NAKANO, TAKAHITO
          NAKAJIMA, TAKAO TSUNEDA, MUNEAKI KAMIYA, SUSUMU YANAGISAWA,
          KIYOSHI YAGI
     UNIVERSITY OF SOUTHERN DENMARK: FRANK JENSEN
     UNIVERSITY OF IOWA: VISVALDAS KAIRYS, HUI LI
     NATIONAL INST. OF STANDARDS AND TECHNOLOGY: WALT STEVENS, DAVID GARMER
     UNIVERSITY OF PISA: BENEDETTA MENNUCCI, JACOPO TOMASI
     UNIVERSITY OF MEMPHIS: HENRY KURTZ, PRAKASHAN KORAMBATH
     UNIVERSITY OF ALBERTA: MARIUSZ KLOBUKOWSKI
     UNIVERSITY OF NEW ENGLAND: MARK SPACKMAN
     MIE UNIVERSITY: HIROAKI UMEDA
     MICHIGAN STATE UNIVERSITY:
          KAROL KOWALSKI, MARTA WLOCH, PIOTR PIECUCH
     UNIVERSITY OF SILESIA: MONIKA MUSIAL, STANISLAW KUCHARSKI
     FACULTES UNIVERSITAIRES NOTRE-DAME DE LA PAIX:
          OLIVIER QUINET, BENOIT CHAMPAGNE
     UNIVERSITY OF CALIFORNIA - SANTA BARBARA: BERNARD KIRTMAN
     INSTITUTE FOR MOLECULAR SCIENCE: KAZUYA ISHIMURA AND SHIGERU NAGASE
     UNIVERSITY OF NOTRE DAME: DAN CHIPMAN
     KYUSHU UNIVERSITY:
          FENG LONG GU, JACEK KORCHOWIEC, MARCIN MAKOWSKI, AND YURIKO AOKI
     PENNSYLVANIA STATE UNIVERSITY:
          TZVETELIN IORDANOV, CHET SWALINA, SHARON HAMMES-SCHIFFER


 PARALLEL VERSION RUNNING ON     8 PROCESSORS IN     1 NODES.

 EXECUTION OF GAMESS BEGUN Tue Sep 26 16:43:16 2017

            ECHO OF THE FIRST FEW INPUT CARDS -
 INPUT CARD> $CONTRL                                                                        
 INPUT CARD>   EXETYP=RUN COORD=UNIQUE  UNITS=ANGS                                          
 INPUT CARD>   RUNTYP=ENERGY SCFTYP=RHF CITYP=NONE                                          
 INPUT CARD>   MAXIT=100                                                                    
 INPUT CARD>   ISPHER=1                                                                     
 INPUT CARD>   MULT=1                                                                       
 INPUT CARD>   ICHARG=1                                                                     
 INPUT CARD>   MPLEVL=0                                                                     
 INPUT CARD>   ECP=READ                                                                     
 INPUT CARD> $END                                                                           
 INPUT CARD>                                                                                
 INPUT CARD> $SYSTEM                                                                        
 INPUT CARD>  MWORDS=2000                                                                   
 INPUT CARD> $END                                                                           
 INPUT CARD>                                                                                
 INPUT CARD> $GUESS                                                                         
 INPUT CARD>  GUESS=HUCKEL                                                                  
 INPUT CARD> $END                                                                           
 INPUT CARD>                                                                                
 INPUT CARD> $SCF                                                                           
 INPUT CARD>  DIRSCF=.T. DIIS=.T. FDIFF=.F.                                                 
 INPUT CARD> $END                                                                           
 INPUT CARD>                                                                                
 INPUT CARD> $BASIS                                                                         
 INPUT CARD>  EXTFIL=.TRUE.                                                                 
 INPUT CARD>  GBASIS=BASIS                                                                  
 INPUT CARD> $END                                                                           
 INPUT CARD>                                                                                
 INPUT CARD> $DATA                                                                          
 INPUT CARD>C3                                                                              
 INPUT CARD>C1                                                                              
 INPUT CARD>H 1.0           0.000000    0.000000    1.241288                                
 INPUT CARD>H 1.0           0.000000    1.263096   -1.569624                                
 INPUT CARD>H 1.0           0.000000   -1.263096   -1.569624                                
 INPUT CARD>H 1.0           0.000000    2.354078    1.307718                                
 INPUT CARD>H 1.0           0.000000   -2.354078    1.307718                                
 INPUT CARD>H 1.0           0.000000    3.805047   -1.419354                                
 INPUT CARD>H 1.0           0.000000   -3.805047   -1.419354                                
 INPUT CARD>H 1.0           0.000000    4.694589    1.536243                                
 INPUT CARD>H 1.0           0.000000   -4.694589    1.536243                                
 INPUT CARD>H 1.0           0.000000    6.288701   -0.950612                                
 INPUT CARD>H 1.0           0.000000   -6.288701   -0.950612                                
 INPUT CARD>H 1.0           0.000000    6.836633    0.675481                                
 INPUT CARD>H 1.0           0.000000   -6.836633    0.675481                                
 INPUT CARD>C 6.0           0.000000    0.000000    0.153078                                
 INPUT CARD>C 6.0           0.000000    1.232759   -0.484694                                
 INPUT CARD>C 6.0           0.000000   -1.232759   -0.484694                                
 INPUT CARD>C 6.0           0.000000    2.419726    0.221500                                
 INPUT CARD>C 6.0           0.000000   -2.419726    0.221500                                
 INPUT CARD>C 6.0           0.000000    3.695049   -0.339907                                

 ..... DONE SETTING UP THE RUN .....
 2000000000 WORDS OF MEMORY AVAILABLE

     $BASIS REQUESTS READING THE "BASIS   " BASIS SET FROM AN EXTERNAL FILE


     RUN TITLE
     ---------
 C3                                                                              

 THE POINT GROUP OF THE MOLECULE IS C1      
 THE ORDER OF THE PRINCIPAL AXIS IS     0

 THE EXTERNAL BASIS SET FILE BEING READ IS
     "/home/scemama/Cyanines/Runs/AVDZ_Pseudo/BASIS"
 *** WARNING! ATOM   1 SHELL    1 TYPE S HAS NORMALIZATION   1.32259418
 *** WARNING! ATOM   1 SHELL    3 TYPE P HAS NORMALIZATION  22.65171974
 *** WARNING! ATOM   2 SHELL    6 TYPE S HAS NORMALIZATION   1.32259418
 *** WARNING! ATOM   2 SHELL    8 TYPE P HAS NORMALIZATION  22.65171974
 *** WARNING! ATOM   3 SHELL   11 TYPE S HAS NORMALIZATION   1.32259418
 *** WARNING! ATOM   3 SHELL   13 TYPE P HAS NORMALIZATION  22.65171974
 *** WARNING! ATOM   4 SHELL   16 TYPE S HAS NORMALIZATION   1.32259418
 *** WARNING! ATOM   4 SHELL   18 TYPE P HAS NORMALIZATION  22.65171974
 *** WARNING! ATOM   5 SHELL   21 TYPE S HAS NORMALIZATION   1.32259418
 *** WARNING! ATOM   5 SHELL   23 TYPE P HAS NORMALIZATION  22.65171974
 *** WARNING! ATOM   6 SHELL   26 TYPE S HAS NORMALIZATION   1.32259418
 *** WARNING! ATOM   6 SHELL   28 TYPE P HAS NORMALIZATION  22.65171974
 *** WARNING! ATOM   7 SHELL   31 TYPE S HAS NORMALIZATION   1.32259418
 *** WARNING! ATOM   7 SHELL   33 TYPE P HAS NORMALIZATION  22.65171974
 *** WARNING! ATOM   8 SHELL   36 TYPE S HAS NORMALIZATION   1.32259418
 *** WARNING! ATOM   8 SHELL   38 TYPE P HAS NORMALIZATION  22.65171974
 *** WARNING! ATOM   9 SHELL   41 TYPE S HAS NORMALIZATION   1.32259418
 *** WARNING! ATOM   9 SHELL   43 TYPE P HAS NORMALIZATION  22.65171974
 *** WARNING! ATOM  10 SHELL   46 TYPE S HAS NORMALIZATION   1.32259418
 *** WARNING! ATOM  10 SHELL   48 TYPE P HAS NORMALIZATION  22.65171974
 *** WARNING! ATOM  11 SHELL   51 TYPE S HAS NORMALIZATION   1.32259418
 *** WARNING! ATOM  11 SHELL   53 TYPE P HAS NORMALIZATION  22.65171974
 *** WARNING! ATOM  12 SHELL   56 TYPE S HAS NORMALIZATION   1.32259418
 *** WARNING! ATOM  12 SHELL   58 TYPE P HAS NORMALIZATION  22.65171974
 *** WARNING! ATOM  13 SHELL   61 TYPE S HAS NORMALIZATION   1.32259418
 *** WARNING! ATOM  13 SHELL   63 TYPE P HAS NORMALIZATION  22.65171974

 ATOM      ATOMIC                      COORDINATES (BOHR)
           CHARGE         X                   Y                   Z
 H           1.0     0.0000000000        0.0000000000        2.3456941918
 H           1.0     0.0000000000        2.3869053362       -2.9661592638
 H           1.0     0.0000000000       -2.3869053362       -2.9661592638
 H           1.0     0.0000000000        4.4485623737        2.4712286892
 H           1.0     0.0000000000       -4.4485623737        2.4712286892
 H           1.0     0.0000000000        7.1904962004       -2.6821901396
 H           1.0     0.0000000000       -7.1904962004       -2.6821901396
 H           1.0     0.0000000000        8.8714868350        2.9030783206
 H           1.0     0.0000000000       -8.8714868350        2.9030783206
 H           1.0     0.0000000000       11.8839217087       -1.7963962006
 H           1.0     0.0000000000      -11.8839217087       -1.7963962006
 H           1.0     0.0000000000       12.9193630486        1.2764739999
 H           1.0     0.0000000000      -12.9193630486        1.2764739999
 C           6.0     0.0000000000        0.0000000000        0.2892754747
 C           6.0     0.0000000000        2.3295767189       -0.9159388479
 C           6.0     0.0000000000       -2.3295767189       -0.9159388479
 C           6.0     0.0000000000        4.5726191054        0.4185743063
 C           6.0     0.0000000000       -4.5726191054        0.4185743063
 C           6.0     0.0000000000        6.9826301212       -0.6423310913
 C           6.0     0.0000000000       -6.9826301212       -0.6423310913
 C           6.0     0.0000000000        9.0953740111        0.8646951483
 C           6.0     0.0000000000       -9.0953740111        0.8646951483
 N           7.0     0.0000000000       11.4667420202        0.0576120762
 N           7.0     0.0000000000      -11.4667420202        0.0576120762

          INTERNUCLEAR DISTANCES (ANGS.)
          ------------------------------

                    H              H              H              H         

  1  H               0.0000000      3.0816615      3.0816615      2.3550151 *  
  2  H               3.0816615      0.0000000      2.5261920 *    3.0772291    
  3  H               3.0816615      2.5261920 *    0.0000000      4.6220174    
  4  H               2.3550151 *    3.0772291      4.6220174      0.0000000    
  5  H               2.3550151 *    4.6220174      3.0772291      4.7081560    
  6  H               4.6429946      2.5463888 *    5.0703703      3.0890505    
  7  H               4.6429946      5.0703703      2.5463888 *    6.7358550    
  8  H               4.7038457      4.6283425      6.7186621      2.3516410 *  
  9  H               4.7038457      6.7186621      4.6283425      7.0523705    
 10  H               6.6597437      5.0635839      7.5771244      4.5366632    
 11  H               6.6597437      7.5771244      5.0635839      8.9329549    
 12  H               6.8600064      6.0087279      8.4051238      4.5269220    
 13  H               6.8600064      8.4051238      6.0087279      9.2124314    
 14  C               1.0882100 *    2.1361446 *    2.1361446 *    2.6219986 *  
 15  C               2.1210159 *    1.0853541 *    2.7214638 *    2.1142604 *  
 16  C               2.1210159 *    2.7214638 *    1.0853541 *    4.0097557    
 17  C               2.6258411 *    2.1321159 *    4.0952781      1.0882000 *  
 18  C               2.6258411 *    4.0952781      2.1321159 *    4.8958221    
 19  C               4.0191498      2.7251788 *    5.1083662      2.1243520 *  
 20  C               4.0191498      5.1083662      2.7251788 *    6.2694980    
 21  C               4.8764534      4.0880098      6.4054099      2.6017988 *  
 22  C               4.8764534      6.4054099      4.0880098      7.2173872    
 23  N               6.1875619      5.0642740      7.5036277      3.9273506    
 24  N               6.1875619      7.5036277      5.0642740      8.5183149    

                    H              H              H              H         

  1  H               2.3550151 *    4.6429946      4.6429946      4.7038457    
  2  H               4.6220174      2.5463888 *    5.0703703      4.6283425    
  3  H               3.0772291      5.0703703      2.5463888 *    6.7186621    
  4  H               4.7081560      3.0890505      6.7358550      2.3516410 *  
  5  H               0.0000000      6.7358550      3.0890505      7.0523705    
  6  H               6.7358550      0.0000000      7.6100940      3.0865577    
  7  H               3.0890505      7.6100940      0.0000000      8.9988536    
  8  H               7.0523705      3.0865577      8.9988536      0.0000000    
  9  H               2.3516410 *    8.9988536      3.0865577      9.3891780    
 10  H               8.9329549      2.5275000 *   10.1046261      2.9539196 *  
 11  H               4.5366632     10.1046261      2.5275000 *   11.2613102    
 12  H               9.2124314      3.6849488     10.8459065      2.3085198 *  
 13  H               4.5269220     10.8459065      3.6849488     11.5633037    
 14  C               2.6219986 *    4.1171501      4.1171501      4.8941099    
 15  C               4.0097557      2.7368330 *    5.1237758      4.0085475    
 16  C               2.1142604 *    5.1237758      2.7368330 *    6.2623990    
 17  C               4.8958221      2.1474441 *    6.4374064      2.6274609 *  
 18  C               1.0882000 *    6.4374064      2.1474441 *    7.2347790    
 19  C               6.2694980      1.0850370 *    7.5773772      2.1257984 *  
 20  C               2.1243520 *    7.5773772      1.0850370 *    8.5968578    
 21  C               7.2173872      2.1304859 *    8.8201318      1.0851529 *  
 22  C               2.6017988 *    8.8201318      2.1304859 *    9.5686470    
 23  N               8.5183149      2.6875117 *    9.9788723      2.0379871 *  
 24  N               3.9273506      9.9788723      2.6875117 *   10.8673506    

                    H              H              H              H         

  1  H               4.7038457      6.6597437      6.6597437      6.8600064    
  2  H               6.7186621      5.0635839      7.5771244      6.0087279    
  3  H               4.6283425      7.5771244      5.0635839      8.4051238    
  4  H               7.0523705      4.5366632      8.9329549      4.5269220    
  5  H               2.3516410 *    8.9329549      4.5366632      9.2124314    
  6  H               8.9988536      2.5275000 *   10.1046261      3.6849488    
  7  H               3.0865577     10.1046261      2.5275000 *   10.8459065    
  8  H               9.3891780      2.9539196 *   11.2613102      2.3085198 *  
  9  H               0.0000000     11.2613102      2.9539196 *   11.5633037    
 10  H              11.2613102      0.0000000     12.5774020      1.7159277 *  
 11  H               2.9539196 *   12.5774020      0.0000000     13.2256785    
 12  H              11.5633037      1.7159277 *   13.2256785      0.0000000    
 13  H               2.3085198 *   13.2256785      1.7159277 *   13.6732660    
 14  C               4.8941099      6.3848173      6.3848173      6.8565630    
 15  C               6.2623990      5.0773644      7.5358769      5.7227100    
 16  C               4.0085475      7.5358769      5.0773644      8.1523673    
 17  C               7.2347790      4.0426247      8.7869532      4.4401764    
 18  C               2.6274609 *    8.7869532      4.0426247      9.2674851    
 19  C               8.5968578      2.6645809 *   10.0024109      3.3016000    
 20  C               2.1257984 *   10.0024109      2.6645809 *   10.5805169    
 21  C               9.5686470      2.0397299 *   11.1907196      2.0352665 *  
 22  C               1.0851529 *   11.1907196      2.0397299 *   11.6517357    
 23  N              10.8673506      1.0056297 *   12.3955277      1.0034479 *  
 24  N               2.0379871 *   12.3955277      1.0056297 *   12.9206809    

                    H              C              C              C         

  1  H               6.8600064      1.0882100 *    2.1210159 *    2.1210159 *  
  2  H               8.4051238      2.1361446 *    1.0853541 *    2.7214638 *  
  3  H               6.0087279      2.1361446 *    2.7214638 *    1.0853541 *  
  4  H               9.2124314      2.6219986 *    2.1142604 *    4.0097557    
  5  H               4.5269220      2.6219986 *    4.0097557      2.1142604 *  
  6  H              10.8459065      4.1171501      2.7368330 *    5.1237758    
  7  H               3.6849488      4.1171501      5.1237758      2.7368330 *  
  8  H              11.5633037      4.8941099      4.0085475      6.2623990    
  9  H               2.3085198 *    4.8941099      6.2623990      4.0085475    
 10  H              13.2256785      6.3848173      5.0773644      7.5358769    
 11  H               1.7159277 *    6.3848173      7.5358769      5.0773644    
 12  H              13.6732660      6.8565630      5.7227100      8.1523673    
 13  H               0.0000000      6.8565630      8.1523673      5.7227100    
 14  C               6.8565630      0.0000000      1.3879654 *    1.3879654 *  
 15  C               8.1523673      1.3879654 *    0.0000000      2.4655180 *  
 16  C               5.7227100      1.3879654 *    2.4655180 *    0.0000000    
 17  C               9.2674851      2.4206932 *    1.3811592 *    3.7201286    
 18  C               4.4401764      2.4206932 *    3.7201286      1.3811592 *  
 19  C              10.5805169      3.7277904      2.4665432 *    4.9299346    
 20  C               3.3016000      3.7277904      4.9299346      2.4665432 *  
 21  C              11.6517357      4.8226875      3.7022244      6.1188122    
 22  C               2.0352665 *    4.8226875      6.1188122      3.7022244    
 23  N              12.9206809      6.0691772      4.8625484      7.3188526    
 24  N               1.0034479 *    6.0691772      7.3188526      4.8625484    

                    C              C              C              C         

  1  H               2.6258411 *    2.6258411 *    4.0191498      4.0191498    
  2  H               2.1321159 *    4.0952781      2.7251788 *    5.1083662    
  3  H               4.0952781      2.1321159 *    5.1083662      2.7251788 *  
  4  H               1.0882000 *    4.8958221      2.1243520 *    6.2694980    
  5  H               4.8958221      1.0882000 *    6.2694980      2.1243520 *  
  6  H               2.1474441 *    6.4374064      1.0850370 *    7.5773772    
  7  H               6.4374064      2.1474441 *    7.5773772      1.0850370 *  
  8  H               2.6274609 *    7.2347790      2.1257984 *    8.5968578    
  9  H               7.2347790      2.6274609 *    8.5968578      2.1257984 *  
 10  H               4.0426247      8.7869532      2.6645809 *   10.0024109    
 11  H               8.7869532      4.0426247     10.0024109      2.6645809 *  
 12  H               4.4401764      9.2674851      3.3016000     10.5805169    
 13  H               9.2674851      4.4401764     10.5805169      3.3016000    
 14  C               2.4206932 *    2.4206932 *    3.7277904      3.7277904    
 15  C               1.3811592 *    3.7201286      2.4665432 *    4.9299346    
 16  C               3.7201286      1.3811592 *    4.9299346      2.4665432 *  
 17  C               0.0000000      4.8394520      1.3934226 *    6.1404927    
 18  C               4.8394520      0.0000000      6.1404927      1.3934226 *  
 19  C               1.3934226 *    6.1404927      0.0000000      7.3900980    
 20  C               6.1404927      1.3934226 *    7.3900980      0.0000000    
 21  C               2.4049540 *    7.2366427      1.3732955 *    8.5454072    
 22  C               7.2366427      2.4049540 *    8.5454072      1.3732955 *  
 23  N               3.6532101      8.4898141      2.4016242 *    9.7700116    
 24  N               8.4898141      3.6532101      9.7700116      2.4016242 *  

                    C              C              N              N         

  1  H               4.8764534      4.8764534      6.1875619      6.1875619    
  2  H               4.0880098      6.4054099      5.0642740      7.5036277    
  3  H               6.4054099      4.0880098      7.5036277      5.0642740    
  4  H               2.6017988 *    7.2173872      3.9273506      8.5183149    
  5  H               7.2173872      2.6017988 *    8.5183149      3.9273506    
  6  H               2.1304859 *    8.8201318      2.6875117 *    9.9788723    
  7  H               8.8201318      2.1304859 *    9.9788723      2.6875117 *  
  8  H               1.0851529 *    9.5686470      2.0379871 *   10.8673506    
  9  H               9.5686470      1.0851529 *   10.8673506      2.0379871 *  
 10  H               2.0397299 *   11.1907196      1.0056297 *   12.3955277    
 11  H              11.1907196      2.0397299 *   12.3955277      1.0056297 *  
 12  H               2.0352665 *   11.6517357      1.0034479 *   12.9206809    
 13  H              11.6517357      2.0352665 *   12.9206809      1.0034479 *  
 14  C               4.8226875      4.8226875      6.0691772      6.0691772    
 15  C               3.7022244      6.1188122      4.8625484      7.3188526    
 16  C               6.1188122      3.7022244      7.3188526      4.8625484    
 17  C               2.4049540 *    7.2366427      3.6532101      8.4898141    
 18  C               7.2366427      2.4049540 *    8.4898141      3.6532101    
 19  C               1.3732955 *    8.5454072      2.4016242 *    9.7700116    
 20  C               8.5454072      1.3732955 *    9.7700116      2.4016242 *  
 21  C               0.0000000      9.6261300      1.3255620 *   10.8893826    
 22  C               9.6261300      0.0000000     10.8893826      1.3255620 *  
 23  N               1.3255620 *   10.8893826      0.0000000     12.1358780    
 24  N              10.8893826      1.3255620 *   12.1358780      0.0000000    

  * ... LESS THAN  3.000


     ATOMIC BASIS SET
     ----------------
 THE CONTRACTED PRIMITIVE FUNCTIONS HAVE BEEN UNNORMALIZED
 THE CONTRACTED BASIS FUNCTIONS ARE NOW NORMALIZED TO UNITY

  SHELL TYPE  PRIMITIVE        EXPONENT          CONTRACTION COEFFICIENT(S)

 H         

      1   S       1             0.0130000    0.000933751491
      1   S       2             0.0299000   -0.002802577067
      1   S       3             0.0687700    0.076304426024
      1   S       4             0.1581700    0.305115864344
      1   S       5             0.3637920    0.367168015485
      1   S       6             0.8367210    0.224620137364
      1   S       7             1.9244580    0.128877544677
      1   S       8             4.4262540    0.039632857196
      1   S       9            10.1803850   -0.000597812569

      2   S      10             0.1704830    1.000000000000

      3   P      11             0.0030000    0.028133435917
      3   P      12             0.0078000   -0.020681020122
      3   P      13             0.0202810   -0.001223192866
      3   P      14             0.0527300   -0.005391109298
      3   P      15             0.1370970   -0.261174328600
      3   P      16             0.3564510   -0.413054109456
      3   P      17             0.9267740   -0.315515804256
      3   P      18             2.4096120   -0.212812906956
      3   P      19             6.2649910   -0.007860146750

      4   S      20             0.0297400    1.000000000000

      5   P      21             0.1410000    1.000000000000

 H         

      6   S      22             0.0130000    0.000933751491
      6   S      23             0.0299000   -0.002802577067
      6   S      24             0.0687700    0.076304426024
      6   S      25             0.1581700    0.305115864344
      6   S      26             0.3637920    0.367168015485
      6   S      27             0.8367210    0.224620137364
      6   S      28             1.9244580    0.128877544677
      6   S      29             4.4262540    0.039632857196
      6   S      30            10.1803850   -0.000597812569

      7   S      31             0.1704830    1.000000000000

      8   P      32             0.0030000    0.028133435917
      8   P      33             0.0078000   -0.020681020122
      8   P      34             0.0202810   -0.001223192866
      8   P      35             0.0527300   -0.005391109298
      8   P      36             0.1370970   -0.261174328600
      8   P      37             0.3564510   -0.413054109456
      8   P      38             0.9267740   -0.315515804256
      8   P      39             2.4096120   -0.212812906956
      8   P      40             6.2649910   -0.007860146750

      9   S      41             0.0297400    1.000000000000

     10   P      42             0.1410000    1.000000000000

 H         

     11   S      43             0.0130000    0.000933751491
     11   S      44             0.0299000   -0.002802577067
     11   S      45             0.0687700    0.076304426024
     11   S      46             0.1581700    0.305115864344
     11   S      47             0.3637920    0.367168015485
     11   S      48             0.8367210    0.224620137364
     11   S      49             1.9244580    0.128877544677
     11   S      50             4.4262540    0.039632857196
     11   S      51            10.1803850   -0.000597812569

     12   S      52             0.1704830    1.000000000000

     13   P      53             0.0030000    0.028133435917
     13   P      54             0.0078000   -0.020681020122
     13   P      55             0.0202810   -0.001223192866
     13   P      56             0.0527300   -0.005391109298
     13   P      57             0.1370970   -0.261174328600
     13   P      58             0.3564510   -0.413054109456
     13   P      59             0.9267740   -0.315515804256
     13   P      60             2.4096120   -0.212812906956
     13   P      61             6.2649910   -0.007860146750

     14   S      62             0.0297400    1.000000000000

     15   P      63             0.1410000    1.000000000000

 H         

     16   S      64             0.0130000    0.000933751491
     16   S      65             0.0299000   -0.002802577067
     16   S      66             0.0687700    0.076304426024
     16   S      67             0.1581700    0.305115864344
     16   S      68             0.3637920    0.367168015485
     16   S      69             0.8367210    0.224620137364
     16   S      70             1.9244580    0.128877544677
     16   S      71             4.4262540    0.039632857196
     16   S      72            10.1803850   -0.000597812569

     17   S      73             0.1704830    1.000000000000

     18   P      74             0.0030000    0.028133435917
     18   P      75             0.0078000   -0.020681020122
     18   P      76             0.0202810   -0.001223192866
     18   P      77             0.0527300   -0.005391109298
     18   P      78             0.1370970   -0.261174328600
     18   P      79             0.3564510   -0.413054109456
     18   P      80             0.9267740   -0.315515804256
     18   P      81             2.4096120   -0.212812906956
     18   P      82             6.2649910   -0.007860146750

     19   S      83             0.0297400    1.000000000000

     20   P      84             0.1410000    1.000000000000

 H         

     21   S      85             0.0130000    0.000933751491
     21   S      86             0.0299000   -0.002802577067
     21   S      87             0.0687700    0.076304426024
     21   S      88             0.1581700    0.305115864344
     21   S      89             0.3637920    0.367168015485
     21   S      90             0.8367210    0.224620137364
     21   S      91             1.9244580    0.128877544677
     21   S      92             4.4262540    0.039632857196
     21   S      93            10.1803850   -0.000597812569

     22   S      94             0.1704830    1.000000000000

     23   P      95             0.0030000    0.028133435917
     23   P      96             0.0078000   -0.020681020122
     23   P      97             0.0202810   -0.001223192866
     23   P      98             0.0527300   -0.005391109298
     23   P      99             0.1370970   -0.261174328600
     23   P     100             0.3564510   -0.413054109456
     23   P     101             0.9267740   -0.315515804256
     23   P     102             2.4096120   -0.212812906956
     23   P     103             6.2649910   -0.007860146750

     24   S     104             0.0297400    1.000000000000

     25   P     105             0.1410000    1.000000000000

 H         

     26   S     106             0.0130000    0.000933751491
     26   S     107             0.0299000   -0.002802577067
     26   S     108             0.0687700    0.076304426024
     26   S     109             0.1581700    0.305115864344
     26   S     110             0.3637920    0.367168015485
     26   S     111             0.8367210    0.224620137364
     26   S     112             1.9244580    0.128877544677
     26   S     113             4.4262540    0.039632857196
     26   S     114            10.1803850   -0.000597812569

     27   S     115             0.1704830    1.000000000000

     28   P     116             0.0030000    0.028133435917
     28   P     117             0.0078000   -0.020681020122
     28   P     118             0.0202810   -0.001223192866
     28   P     119             0.0527300   -0.005391109298
     28   P     120             0.1370970   -0.261174328600
     28   P     121             0.3564510   -0.413054109456
     28   P     122             0.9267740   -0.315515804256
     28   P     123             2.4096120   -0.212812906956
     28   P     124             6.2649910   -0.007860146750

     29   S     125             0.0297400    1.000000000000

     30   P     126             0.1410000    1.000000000000

 H         

     31   S     127             0.0130000    0.000933751491
     31   S     128             0.0299000   -0.002802577067
     31   S     129             0.0687700    0.076304426024
     31   S     130             0.1581700    0.305115864344
     31   S     131             0.3637920    0.367168015485
     31   S     132             0.8367210    0.224620137364
     31   S     133             1.9244580    0.128877544677
     31   S     134             4.4262540    0.039632857196
     31   S     135            10.1803850   -0.000597812569

     32   S     136             0.1704830    1.000000000000

     33   P     137             0.0030000    0.028133435917
     33   P     138             0.0078000   -0.020681020122
     33   P     139             0.0202810   -0.001223192866
     33   P     140             0.0527300   -0.005391109298
     33   P     141             0.1370970   -0.261174328600
     33   P     142             0.3564510   -0.413054109456
     33   P     143             0.9267740   -0.315515804256
     33   P     144             2.4096120   -0.212812906956
     33   P     145             6.2649910   -0.007860146750

     34   S     146             0.0297400    1.000000000000

     35   P     147             0.1410000    1.000000000000

 H         

     36   S     148             0.0130000    0.000933751491
     36   S     149             0.0299000   -0.002802577067
     36   S     150             0.0687700    0.076304426024
     36   S     151             0.1581700    0.305115864344
     36   S     152             0.3637920    0.367168015485
     36   S     153             0.8367210    0.224620137364
     36   S     154             1.9244580    0.128877544677
     36   S     155             4.4262540    0.039632857196
     36   S     156            10.1803850   -0.000597812569

     37   S     157             0.1704830    1.000000000000

     38   P     158             0.0030000    0.028133435917
     38   P     159             0.0078000   -0.020681020122
     38   P     160             0.0202810   -0.001223192866
     38   P     161             0.0527300   -0.005391109298
     38   P     162             0.1370970   -0.261174328600
     38   P     163             0.3564510   -0.413054109456
     38   P     164             0.9267740   -0.315515804256
     38   P     165             2.4096120   -0.212812906956
     38   P     166             6.2649910   -0.007860146750

     39   S     167             0.0297400    1.000000000000

     40   P     168             0.1410000    1.000000000000

 H         

     41   S     169             0.0130000    0.000933751491
     41   S     170             0.0299000   -0.002802577067
     41   S     171             0.0687700    0.076304426024
     41   S     172             0.1581700    0.305115864344
     41   S     173             0.3637920    0.367168015485
     41   S     174             0.8367210    0.224620137364
     41   S     175             1.9244580    0.128877544677
     41   S     176             4.4262540    0.039632857196
     41   S     177            10.1803850   -0.000597812569

     42   S     178             0.1704830    1.000000000000

     43   P     179             0.0030000    0.028133435917
     43   P     180             0.0078000   -0.020681020122
     43   P     181             0.0202810   -0.001223192866
     43   P     182             0.0527300   -0.005391109298
     43   P     183             0.1370970   -0.261174328600
     43   P     184             0.3564510   -0.413054109456
     43   P     185             0.9267740   -0.315515804256
     43   P     186             2.4096120   -0.212812906956
     43   P     187             6.2649910   -0.007860146750

     44   S     188             0.0297400    1.000000000000

     45   P     189             0.1410000    1.000000000000

 H         

     46   S     190             0.0130000    0.000933751491
     46   S     191             0.0299000   -0.002802577067
     46   S     192             0.0687700    0.076304426024
     46   S     193             0.1581700    0.305115864344
     46   S     194             0.3637920    0.367168015485
     46   S     195             0.8367210    0.224620137364
     46   S     196             1.9244580    0.128877544677
     46   S     197             4.4262540    0.039632857196
     46   S     198            10.1803850   -0.000597812569

     47   S     199             0.1704830    1.000000000000

     48   P     200             0.0030000    0.028133435917
     48   P     201             0.0078000   -0.020681020122
     48   P     202             0.0202810   -0.001223192866
     48   P     203             0.0527300   -0.005391109298
     48   P     204             0.1370970   -0.261174328600
     48   P     205             0.3564510   -0.413054109456
     48   P     206             0.9267740   -0.315515804256
     48   P     207             2.4096120   -0.212812906956
     48   P     208             6.2649910   -0.007860146750

     49   S     209             0.0297400    1.000000000000

     50   P     210             0.1410000    1.000000000000

 H         

     51   S     211             0.0130000    0.000933751491
     51   S     212             0.0299000   -0.002802577067
     51   S     213             0.0687700    0.076304426024
     51   S     214             0.1581700    0.305115864344
     51   S     215             0.3637920    0.367168015485
     51   S     216             0.8367210    0.224620137364
     51   S     217             1.9244580    0.128877544677
     51   S     218             4.4262540    0.039632857196
     51   S     219            10.1803850   -0.000597812569

     52   S     220             0.1704830    1.000000000000

     53   P     221             0.0030000    0.028133435917
     53   P     222             0.0078000   -0.020681020122
     53   P     223             0.0202810   -0.001223192866
     53   P     224             0.0527300   -0.005391109298
     53   P     225             0.1370970   -0.261174328600
     53   P     226             0.3564510   -0.413054109456
     53   P     227             0.9267740   -0.315515804256
     53   P     228             2.4096120   -0.212812906956
     53   P     229             6.2649910   -0.007860146750

     54   S     230             0.0297400    1.000000000000

     55   P     231             0.1410000    1.000000000000

 H         

     56   S     232             0.0130000    0.000933751491
     56   S     233             0.0299000   -0.002802577067
     56   S     234             0.0687700    0.076304426024
     56   S     235             0.1581700    0.305115864344
     56   S     236             0.3637920    0.367168015485
     56   S     237             0.8367210    0.224620137364
     56   S     238             1.9244580    0.128877544677
     56   S     239             4.4262540    0.039632857196
     56   S     240            10.1803850   -0.000597812569

     57   S     241             0.1704830    1.000000000000

     58   P     242             0.0030000    0.028133435917
     58   P     243             0.0078000   -0.020681020122
     58   P     244             0.0202810   -0.001223192866
     58   P     245             0.0527300   -0.005391109298
     58   P     246             0.1370970   -0.261174328600
     58   P     247             0.3564510   -0.413054109456
     58   P     248             0.9267740   -0.315515804256
     58   P     249             2.4096120   -0.212812906956
     58   P     250             6.2649910   -0.007860146750

     59   S     251             0.0297400    1.000000000000

     60   P     252             0.1410000    1.000000000000

 H         

     61   S     253             0.0130000    0.000933751491
     61   S     254             0.0299000   -0.002802577067
     61   S     255             0.0687700    0.076304426024
     61   S     256             0.1581700    0.305115864344
     61   S     257             0.3637920    0.367168015485
     61   S     258             0.8367210    0.224620137364
     61   S     259             1.9244580    0.128877544677
     61   S     260             4.4262540    0.039632857196
     61   S     261            10.1803850   -0.000597812569

     62   S     262             0.1704830    1.000000000000

     63   P     263             0.0030000    0.028133435917
     63   P     264             0.0078000   -0.020681020122
     63   P     265             0.0202810   -0.001223192866
     63   P     266             0.0527300   -0.005391109298
     63   P     267             0.1370970   -0.261174328600
     63   P     268             0.3564510   -0.413054109456
     63   P     269             0.9267740   -0.315515804256
     63   P     270             2.4096120   -0.212812906956
     63   P     271             6.2649910   -0.007860146750

     64   S     272             0.0297400    1.000000000000

     65   P     273             0.1410000    1.000000000000

 C         

     66   S     274             0.0513440    0.013990987871
     66   S     275             0.1026190    0.169851852753
     66   S     276             0.2051000    0.397528655377
     66   S     277             0.4099240    0.380368670253
     66   S     278             0.8192970    0.180112843858
     66   S     279             1.6374940   -0.033511970948
     66   S     280             3.2727910   -0.121498894671
     66   S     281             6.5411870    0.015175986844
     66   S     282            13.0735940   -0.000704999389

     67   S     283             0.1278520    1.000000000000

     68   P     284             0.0292810    0.001787000047
     68   P     285             0.0585470    0.050426001336
     68   P     286             0.1170630    0.191634005079
     68   P     287             0.2340640    0.302667008021
     68   P     288             0.4680030    0.289868007682
     68   P     289             0.9357570    0.210979005591
     68   P     290             1.8710160    0.112024002969
     68   P     291             3.7410350    0.054425001442
     68   P     292             7.4800760    0.021931000581

     69   P     293             0.1491610    1.000000000000

     70   D     294             0.5611600    1.000000000000

     71   S     295             0.0469000    1.000000000000

     72   P     296             0.0404100    1.000000000000

     73   D     297             0.1510000    1.000000000000

 C         

     74   S     298             0.0513440    0.013990987871
     74   S     299             0.1026190    0.169851852753
     74   S     300             0.2051000    0.397528655377
     74   S     301             0.4099240    0.380368670253
     74   S     302             0.8192970    0.180112843858
     74   S     303             1.6374940   -0.033511970948
     74   S     304             3.2727910   -0.121498894671
     74   S     305             6.5411870    0.015175986844
     74   S     306            13.0735940   -0.000704999389

     75   S     307             0.1278520    1.000000000000

     76   P     308             0.0292810    0.001787000047
     76   P     309             0.0585470    0.050426001336
     76   P     310             0.1170630    0.191634005079
     76   P     311             0.2340640    0.302667008021
     76   P     312             0.4680030    0.289868007682
     76   P     313             0.9357570    0.210979005591
     76   P     314             1.8710160    0.112024002969
     76   P     315             3.7410350    0.054425001442
     76   P     316             7.4800760    0.021931000581

     77   P     317             0.1491610    1.000000000000

     78   D     318             0.5611600    1.000000000000

     79   S     319             0.0469000    1.000000000000

     80   P     320             0.0404100    1.000000000000

     81   D     321             0.1510000    1.000000000000

 C         

     82   S     322             0.0513440    0.013990987871
     82   S     323             0.1026190    0.169851852753
     82   S     324             0.2051000    0.397528655377
     82   S     325             0.4099240    0.380368670253
     82   S     326             0.8192970    0.180112843858
     82   S     327             1.6374940   -0.033511970948
     82   S     328             3.2727910   -0.121498894671
     82   S     329             6.5411870    0.015175986844
     82   S     330            13.0735940   -0.000704999389

     83   S     331             0.1278520    1.000000000000

     84   P     332             0.0292810    0.001787000047
     84   P     333             0.0585470    0.050426001336
     84   P     334             0.1170630    0.191634005079
     84   P     335             0.2340640    0.302667008021
     84   P     336             0.4680030    0.289868007682
     84   P     337             0.9357570    0.210979005591
     84   P     338             1.8710160    0.112024002969
     84   P     339             3.7410350    0.054425001442
     84   P     340             7.4800760    0.021931000581

     85   P     341             0.1491610    1.000000000000

     86   D     342             0.5611600    1.000000000000

     87   S     343             0.0469000    1.000000000000

     88   P     344             0.0404100    1.000000000000

     89   D     345             0.1510000    1.000000000000

 C         

     90   S     346             0.0513440    0.013990987871
     90   S     347             0.1026190    0.169851852753
     90   S     348             0.2051000    0.397528655377
     90   S     349             0.4099240    0.380368670253
     90   S     350             0.8192970    0.180112843858
     90   S     351             1.6374940   -0.033511970948
     90   S     352             3.2727910   -0.121498894671
     90   S     353             6.5411870    0.015175986844
     90   S     354            13.0735940   -0.000704999389

     91   S     355             0.1278520    1.000000000000

     92   P     356             0.0292810    0.001787000047
     92   P     357             0.0585470    0.050426001336
     92   P     358             0.1170630    0.191634005079
     92   P     359             0.2340640    0.302667008021
     92   P     360             0.4680030    0.289868007682
     92   P     361             0.9357570    0.210979005591
     92   P     362             1.8710160    0.112024002969
     92   P     363             3.7410350    0.054425001442
     92   P     364             7.4800760    0.021931000581

     93   P     365             0.1491610    1.000000000000

     94   D     366             0.5611600    1.000000000000

     95   S     367             0.0469000    1.000000000000

     96   P     368             0.0404100    1.000000000000

     97   D     369             0.1510000    1.000000000000

 C         

     98   S     370             0.0513440    0.013990987871
     98   S     371             0.1026190    0.169851852753
     98   S     372             0.2051000    0.397528655377
     98   S     373             0.4099240    0.380368670253
     98   S     374             0.8192970    0.180112843858
     98   S     375             1.6374940   -0.033511970948
     98   S     376             3.2727910   -0.121498894671
     98   S     377             6.5411870    0.015175986844
     98   S     378            13.0735940   -0.000704999389

     99   S     379             0.1278520    1.000000000000

    100   P     380             0.0292810    0.001787000047
    100   P     381             0.0585470    0.050426001336
    100   P     382             0.1170630    0.191634005079
    100   P     383             0.2340640    0.302667008021
    100   P     384             0.4680030    0.289868007682
    100   P     385             0.9357570    0.210979005591
    100   P     386             1.8710160    0.112024002969
    100   P     387             3.7410350    0.054425001442
    100   P     388             7.4800760    0.021931000581

    101   P     389             0.1491610    1.000000000000

    102   D     390             0.5611600    1.000000000000

    103   S     391             0.0469000    1.000000000000

    104   P     392             0.0404100    1.000000000000

    105   D     393             0.1510000    1.000000000000

 C         

    106   S     394             0.0513440    0.013990987871
    106   S     395             0.1026190    0.169851852753
    106   S     396             0.2051000    0.397528655377
    106   S     397             0.4099240    0.380368670253
    106   S     398             0.8192970    0.180112843858
    106   S     399             1.6374940   -0.033511970948
    106   S     400             3.2727910   -0.121498894671
    106   S     401             6.5411870    0.015175986844
    106   S     402            13.0735940   -0.000704999389

    107   S     403             0.1278520    1.000000000000

    108   P     404             0.0292810    0.001787000047
    108   P     405             0.0585470    0.050426001336
    108   P     406             0.1170630    0.191634005079
    108   P     407             0.2340640    0.302667008021
    108   P     408             0.4680030    0.289868007682
    108   P     409             0.9357570    0.210979005591
    108   P     410             1.8710160    0.112024002969
    108   P     411             3.7410350    0.054425001442
    108   P     412             7.4800760    0.021931000581

    109   P     413             0.1491610    1.000000000000

    110   D     414             0.5611600    1.000000000000

    111   S     415             0.0469000    1.000000000000

    112   P     416             0.0404100    1.000000000000

    113   D     417             0.1510000    1.000000000000

 C         

    114   S     418             0.0513440    0.013990987871
    114   S     419             0.1026190    0.169851852753
    114   S     420             0.2051000    0.397528655377
    114   S     421             0.4099240    0.380368670253
    114   S     422             0.8192970    0.180112843858
    114   S     423             1.6374940   -0.033511970948
    114   S     424             3.2727910   -0.121498894671
    114   S     425             6.5411870    0.015175986844
    114   S     426            13.0735940   -0.000704999389

    115   S     427             0.1278520    1.000000000000

    116   P     428             0.0292810    0.001787000047
    116   P     429             0.0585470    0.050426001336
    116   P     430             0.1170630    0.191634005079
    116   P     431             0.2340640    0.302667008021
    116   P     432             0.4680030    0.289868007682
    116   P     433             0.9357570    0.210979005591
    116   P     434             1.8710160    0.112024002969
    116   P     435             3.7410350    0.054425001442
    116   P     436             7.4800760    0.021931000581

    117   P     437             0.1491610    1.000000000000

    118   D     438             0.5611600    1.000000000000

    119   S     439             0.0469000    1.000000000000

    120   P     440             0.0404100    1.000000000000

    121   D     441             0.1510000    1.000000000000

 C         

    122   S     442             0.0513440    0.013990987871
    122   S     443             0.1026190    0.169851852753
    122   S     444             0.2051000    0.397528655377
    122   S     445             0.4099240    0.380368670253
    122   S     446             0.8192970    0.180112843858
    122   S     447             1.6374940   -0.033511970948
    122   S     448             3.2727910   -0.121498894671
    122   S     449             6.5411870    0.015175986844
    122   S     450            13.0735940   -0.000704999389

    123   S     451             0.1278520    1.000000000000

    124   P     452             0.0292810    0.001787000047
    124   P     453             0.0585470    0.050426001336
    124   P     454             0.1170630    0.191634005079
    124   P     455             0.2340640    0.302667008021
    124   P     456             0.4680030    0.289868007682
    124   P     457             0.9357570    0.210979005591
    124   P     458             1.8710160    0.112024002969
    124   P     459             3.7410350    0.054425001442
    124   P     460             7.4800760    0.021931000581

    125   P     461             0.1491610    1.000000000000

    126   D     462             0.5611600    1.000000000000

    127   S     463             0.0469000    1.000000000000

    128   P     464             0.0404100    1.000000000000

    129   D     465             0.1510000    1.000000000000

 C         

    130   S     466             0.0513440    0.013990987871
    130   S     467             0.1026190    0.169851852753
    130   S     468             0.2051000    0.397528655377
    130   S     469             0.4099240    0.380368670253
    130   S     470             0.8192970    0.180112843858
    130   S     471             1.6374940   -0.033511970948
    130   S     472             3.2727910   -0.121498894671
    130   S     473             6.5411870    0.015175986844
    130   S     474            13.0735940   -0.000704999389

    131   S     475             0.1278520    1.000000000000

    132   P     476             0.0292810    0.001787000047
    132   P     477             0.0585470    0.050426001336
    132   P     478             0.1170630    0.191634005079
    132   P     479             0.2340640    0.302667008021
    132   P     480             0.4680030    0.289868007682
    132   P     481             0.9357570    0.210979005591
    132   P     482             1.8710160    0.112024002969
    132   P     483             3.7410350    0.054425001442
    132   P     484             7.4800760    0.021931000581

    133   P     485             0.1491610    1.000000000000

    134   D     486             0.5611600    1.000000000000

    135   S     487             0.0469000    1.000000000000

    136   P     488             0.0404100    1.000000000000

    137   D     489             0.1510000    1.000000000000

 N         

    138   S     490             0.0988690    0.067266010234
    138   S     491             0.2114430    0.334290050859
    138   S     492             0.4521970    0.454257069111
    138   S     493             0.9670800    0.267861040752
    138   S     494             2.0682210    0.000248000038
    138   S     495             4.4231500   -0.132606020175
    138   S     496             9.4594620    0.014437002196
    138   S     497            20.2302460    0.000359000055
    138   S     498            43.2649190   -0.000094000014

    139   S     499             0.1751230    1.000000000000

    140   P     500             0.0732340    0.035757988749
    140   P     501             0.1458670    0.153944951562
    140   P     502             0.2905350    0.277655912638
    140   P     503             0.5786830    0.297675906338
    140   P     504             1.1526120    0.234402926247
    140   P     505             2.2957560    0.140320955849
    140   P     506             4.5726520    0.067218978850
    140   P     507             9.1077390    0.031593990059
    140   P     508            18.1406570    0.003300998961

    141   P     509             0.2230420    1.000000000000

    142   D     510             0.8320580    1.000000000000

    143   S     511             0.0612400    1.000000000000

    144   P     512             0.0561100    1.000000000000

    145   D     513             0.2300000    1.000000000000

 N         

    146   S     514             0.0988690    0.067266010234
    146   S     515             0.2114430    0.334290050859
    146   S     516             0.4521970    0.454257069111
    146   S     517             0.9670800    0.267861040752
    146   S     518             2.0682210    0.000248000038
    146   S     519             4.4231500   -0.132606020175
    146   S     520             9.4594620    0.014437002196
    146   S     521            20.2302460    0.000359000055
    146   S     522            43.2649190   -0.000094000014

    147   S     523             0.1751230    1.000000000000

    148   P     524             0.0732340    0.035757988749
    148   P     525             0.1458670    0.153944951562
    148   P     526             0.2905350    0.277655912638
    148   P     527             0.5786830    0.297675906338
    148   P     528             1.1526120    0.234402926247
    148   P     529             2.2957560    0.140320955849
    148   P     530             4.5726520    0.067218978850
    148   P     531             9.1077390    0.031593990059
    148   P     532            18.1406570    0.003300998961

    149   P     533             0.2230420    1.000000000000

    150   D     534             0.8320580    1.000000000000

    151   S     535             0.0612400    1.000000000000

    152   P     536             0.0561100    1.000000000000

    153   D     537             0.2300000    1.000000000000

 TOTAL NUMBER OF BASIS SET SHELLS             =  153
 NUMBER OF CARTESIAN GAUSSIAN BASIS FUNCTIONS =  381
 NOTE: THIS RUN WILL RESTRICT THE MO VARIATION SPACE TO SPHERICAL HARMONICS.
 THE NUMBER OF ORBITALS KEPT IN THE VARIATIONAL SPACE WILL BE PRINTED LATER.
 NUMBER OF ELECTRONS                          =   80
 CHARGE OF MOLECULE                           =    1
 SPIN MULTIPLICITY                            =    1
 NUMBER OF OCCUPIED ORBITALS (ALPHA)          =   40
 NUMBER OF OCCUPIED ORBITALS (BETA )          =   40
 TOTAL NUMBER OF ATOMS                        =   24
 THE NUCLEAR REPULSION ENERGY IS      498.5415513784
 NOTE THIS RUN IS USING CORE POTENTIALS, AND THE NUMBER OF ELECTRONS,
 OCCUPIED ORBITALS, AND NUCLEAR REPULSION ENERGY WILL BE ADJUSTED BELOW
 AFTER REMOVAL OF THE CORE CHARGES.

     $CONTRL OPTIONS
     ---------------
 SCFTYP=RHF          RUNTYP=ENERGY       EXETYP=RUN     
 MPLEVL=       0     CITYP =NONE         CCTYP =NONE         VBTYP =NONE    
 MULT  =       1     ICHARG=       1     NZVAR =       0     COORD =UNIQUE  
 PP    =READ         RELWFN=NONE         LOCAL =NONE         NUMGRD=       F
 ISPHER=       1     NOSYM =       0     MAXIT =     100     UNITS =ANGS    
 PLTORB=       F     MOLPLT=       F     AIMPAC=       F     FRIEND=        
 NPRINT=       7     IREST =       0     GEOM  =INPUT   
 NORMF =       0     NORMP =       0     ITOL  =      20     ICUT  =       9
 INTTYP=BEST         GRDTYP=BEST         QMTTOL= 1.0E-06

     $SYSTEM OPTIONS
     ---------------
  REPLICATED MEMORY=  2000000000 WORDS (ON EVERY NODE).
 DISTRIBUTED MEMDDI=           0 MILLION WORDS IN AGGREGATE,
 MEMDDI DISTRIBUTED OVER   8 PROCESSORS IS           0 WORDS/PROCESSOR.
 TOTAL MEMORY REQUESTED ON EACH PROCESSOR=  2000000000 WORDS.
 TIMLIM=      525600.00 MINUTES, OR   365.00 DAYS.
 PARALL= T  BALTYP=  NXTVAL  KDIAG=    0  COREFL= F

          --------------
          ECP POTENTIALS
          --------------

 PARAMETERS FOR "H       " ON ATOM    1 WITH ZCORE   0 AND LMAX  0 ARE
 FOR L= 0      COEFF    N           ZETA
    1        1.00000    1        4.47692
    2        4.47692    3        2.97636
    3       -4.32112    2        3.01842

 PARAMETERS FOR "H       " ON ATOM    2 ARE THE SAME AS ATOM   1

 PARAMETERS FOR "H       " ON ATOM    3 ARE THE SAME AS ATOM   1

 PARAMETERS FOR "H       " ON ATOM    4 ARE THE SAME AS ATOM   1

 PARAMETERS FOR "H       " ON ATOM    5 ARE THE SAME AS ATOM   1

 PARAMETERS FOR "H       " ON ATOM    6 ARE THE SAME AS ATOM   1

 PARAMETERS FOR "H       " ON ATOM    7 ARE THE SAME AS ATOM   1

 PARAMETERS FOR "H       " ON ATOM    8 ARE THE SAME AS ATOM   1

 PARAMETERS FOR "H       " ON ATOM    9 ARE THE SAME AS ATOM   1

 PARAMETERS FOR "H       " ON ATOM   10 ARE THE SAME AS ATOM   1

 PARAMETERS FOR "H       " ON ATOM   11 ARE THE SAME AS ATOM   1

 PARAMETERS FOR "H       " ON ATOM   12 ARE THE SAME AS ATOM   1

 PARAMETERS FOR "H       " ON ATOM   13 ARE THE SAME AS ATOM   1

 PARAMETERS FOR "C       " ON ATOM   14 WITH ZCORE   2 AND LMAX  1 ARE
 FOR L= 1      COEFF    N           ZETA
    1        4.00000    1        8.35974
    2       33.43895    3        4.48362
    3      -19.17537    2        3.93831
 FOR L= 0      COEFF    N           ZETA
    1       22.55164    2        5.02992

 PARAMETERS FOR "C       " ON ATOM   15 ARE THE SAME AS ATOM  14

 PARAMETERS FOR "C       " ON ATOM   16 ARE THE SAME AS ATOM  14

 PARAMETERS FOR "C       " ON ATOM   17 ARE THE SAME AS ATOM  14

 PARAMETERS FOR "C       " ON ATOM   18 ARE THE SAME AS ATOM  14

 PARAMETERS FOR "C       " ON ATOM   19 ARE THE SAME AS ATOM  14

 PARAMETERS FOR "C       " ON ATOM   20 ARE THE SAME AS ATOM  14

 PARAMETERS FOR "C       " ON ATOM   21 ARE THE SAME AS ATOM  14

 PARAMETERS FOR "C       " ON ATOM   22 ARE THE SAME AS ATOM  14

 PARAMETERS FOR "N       " ON ATOM   23 WITH ZCORE   2 AND LMAX  1 ARE
 FOR L= 1      COEFF    N           ZETA
    1        5.00000    1        9.23501
    2       46.17505    3        7.66830
    3      -30.18894    2        7.34486
 FOR L= 0      COEFF    N           ZETA
    1       31.69720    2        6.99537

 PARAMETERS FOR "N       " ON ATOM   24 ARE THE SAME AS ATOM  23

 THE ECP RUN REMOVES   22 CORE ELECTRONS, AND THE SAME NUMBER OF PROTONS.
 NUMBER OF ELECTRONS KEPT IN THE CALCULATION IS =   58
 NUMBER OF OCCUPIED ORBITALS (ALPHA) KEPT IS    =   29
 NUMBER OF OCCUPIED ORBITALS (BETA ) KEPT IS    =   29
 THE ADJUSTED NUCLEAR REPULSION ENERGY=      263.6021638909
          ECP ANGULAR INTS.........     0.00 SECONDS

          ----------------
          PROPERTIES INPUT
          ----------------

     MOMENTS            FIELD           POTENTIAL          DENSITY
 IEMOM =       1   IEFLD =       0   IEPOT =       0   IEDEN =       0
 WHERE =COMASS     WHERE =NUCLEI     WHERE =NUCLEI     WHERE =NUCLEI  
 OUTPUT=BOTH       OUTPUT=BOTH       OUTPUT=BOTH       OUTPUT=BOTH    
 IEMINT=       0   IEFINT=       0                     IEDINT=       0
                                                       MORB  =       0
          EXTRAPOLATION IN EFFECT
          DIIS IN EFFECT
 ORBITAL PRINTING OPTION: NPREO=   1 381   2   1

     -------------------------------
     INTEGRAL TRANSFORMATION OPTIONS
     -------------------------------
     NWORD  =       0     CUTOFF = 1.0E-09
     MPTRAN =       0     DIRTRF =       T
     AOINTS =DUP     

          ----------------------
          INTEGRAL INPUT OPTIONS
          ----------------------
 NOPK  =       1 NORDER=       0 SCHWRZ=       T

     ------------------------------------------
     THE POINT GROUP IS C1 , NAXIS= 0, ORDER= 1
     ------------------------------------------

 -- VARIATIONAL SPACE WILL BE RESTRICTED TO PURE SPHERICAL HARMONICS ONLY --
 AFTER EXCLUDING CONTAMINANT COMBINATIONS FROM THE CARTESIAN GAUSSIAN BASIS
 SET, THE NUMBER OF SPHERICAL HARMONICS KEPT IN THE VARIATION SPACE IS  359

     DIMENSIONS OF THE SYMMETRY SUBSPACES ARE
 A   =  359

 ..... DONE SETTING UP THE RUN .....
 ON NODE 0, STEP CPU TIME =     0.05 TOTAL CPU TIME =        0.0 (    0.0 MIN)
 TOTAL WALL CLOCK TIME=        0.0 SECONDS, CPU UTILIZATION IS 100.00%

          ********************
          1 ELECTRON INTEGRALS
          ********************
 TIME TO DO ORDINARY INTEGRALS=      0.06
 TIME TO DO      ECP INTEGRALS=      0.51
 ...... END OF ONE-ELECTRON INTEGRALS ......
 ON NODE 0, STEP CPU TIME =     0.57 TOTAL CPU TIME =        0.6 (    0.0 MIN)
 TOTAL WALL CLOCK TIME=        0.0 SECONDS, CPU UTILIZATION IS 100.00%

          -------------
          GUESS OPTIONS
          -------------
          GUESS =HUCKEL            NORB  =       0          NORDER=       0
          MIX   =       F          PRTMO =       F          PUNMO =       F
          TOLZ  = 1.0E-08          TOLE  = 1.0E-05
          SYMDEN=       F          PURIFY=       F

 INITIAL GUESS ORBITALS GENERATED BY HUCKEL   ROUTINE.
 HUCKEL GUESS REQUIRES   1076841 WORDS.

 STATISTICS FOR GENERATION OF SYMMETRY ORBITAL -Q- MATRIX
 NUMBER OF CARTESIAN ATOMIC ORBITALS=        381
 NUMBER OF SPHERICAL CONTAMINANTS DROPPED=    22
 NUMBER OF LINEARLY DEPENDENT MOS DROPPED=     0
 TOTAL NUMBER OF MOS IN VARIATION SPACE=     359

                    * * * * * WARNING * * * * *
 POSSIBLE LINEAR DEPENDENCE PROBLEMS DETECTED, INPUT QMTTOL= 1.0E-06,
 WITH    10 OVERLAP EIGENVALUES LYING BETWEEN 1.0E-05 AND QMTTOL.
 IF YOU EXPERIENCE SCF CONVERGENCE DIFFICULTIES WITH THE DENSITY ALMOST BUT
 NOT QUITE CONVERGED, YOU MAY NEED TO LOOSEN -QMTTOL- BY A FACTOR 5 TO 10.

 SYMMETRIES FOR INITIAL GUESS ORBITALS FOLLOW.   BOTH SET(S).
    29 ORBITALS ARE OCCUPIED (    0 CORE ORBITALS).
     1=A        2=A        3=A        4=A        5=A        6=A        7=A   
     8=A        9=A       10=A       11=A       12=A       13=A       14=A   
    15=A       16=A       17=A       18=A       19=A       20=A       21=A   
    22=A       23=A       24=A       25=A       26=A       27=A       28=A   
    29=A       30=A       31=A       32=A       33=A       34=A       35=A   
    36=A       37=A       38=A       39=A   
 ...... END OF INITIAL ORBITAL SELECTION ......
 ON NODE 0, STEP CPU TIME =     0.46 TOTAL CPU TIME =        1.1 (    0.0 MIN)
 TOTAL WALL CLOCK TIME=        0.0 SECONDS, CPU UTILIZATION IS 100.00%

                    ----------------------
                    AO INTEGRAL TECHNOLOGY
                    ----------------------
     S,P,L SHELL ROTATED AXIS INTEGRALS, REPROGRAMMED BY
        KAZUYA ISHIMURA (IMS) AND JOSE SIERRA (SYNSTAR).
     S,P,D,L SHELL ROTATED AXIS INTEGRALS PROGRAMMED BY
        KAZUYA ISHIMURA (INSTITUTE FOR MOLECULAR SCIENCE).
     S,P,D,F,G SHELL TO TOTAL QUARTET ANGULAR MOMENTUM SUM 5,
        ERIC PROGRAM BY GRAHAM FLETCHER (ELORET AND NASA ADVANCED
        SUPERCOMPUTING DIVISION, AMES RESEARCH CENTER).
     S,P,D,F,G,L SHELL GENERAL RYS QUADRATURE PROGRAMMED BY
        MICHEL DUPUIS (PACIFIC NORTHWEST NATIONAL LABORATORY).

          --------------------
          2 ELECTRON INTEGRALS
          --------------------

 DIRECT SCF METHOD SKIPS INTEGRAL STORAGE ON DISK.
 DIRECT TRANSFORMATION SKIPS AO INTEGRAL STORAGE ON DISK.
  ...... END OF TWO-ELECTRON INTEGRALS .....
 ON NODE 0, STEP CPU TIME =     0.01 TOTAL CPU TIME =        1.1 (    0.0 MIN)
 TOTAL WALL CLOCK TIME=        0.0 SECONDS, CPU UTILIZATION IS 100.00%

          --------------------------
                 RHF SCF CALCULATION
          --------------------------

     NUCLEAR ENERGY =       263.6021638909
     MAXIT =  100     NPUNCH=    2
     EXTRAP=T  DAMP=F  SHIFT=F  RSTRCT=F  DIIS=T  DEM=F  SOSCF=F
     DENSITY MATRIX CONV=  2.00E-05
     MEMORY REQUIRED FOR RHF STEP=   1095809 WORDS.

 DIRECT SCF CALCULATION, SCHWRZ=T   FDIFF=F,  DIRTHR=  0.00E+00 NITDIR=10
 SCHWARZ INEQUALITY OVERHEAD:     70225 INTEGRALS, T=        0.05

                                                                                   NONZERO     BLOCKS
 ITER EX DEM     TOTAL ENERGY        E CHANGE  DENSITY CHANGE    DIIS ERROR      INTEGRALS    SKIPPED
          * * *   INITIATING DIIS PROCEDURE   * * *
   1  0  0      -75.4639175633   -75.4639175633  10.753055755   0.195317532     1022422506    9507011
   2  1  0      -76.3721512715    -0.9082337081   1.888538449   0.107954660     1023500920    9744008
   3  2  0      -76.4667096682    -0.0945583967   0.716547282   0.036259543     1023377540    9776180
   4  3  0      -76.4885042089    -0.0217945407   0.767626015   0.008655118     1023395242    9784200
   5  4  0      -76.4899836001    -0.0014793912   0.074120534   0.004612228     1023348276    9803617
   6  5  0      -76.4902458346    -0.0002622345   0.029113665   0.001692264     1023341319    9805573
   7  6  0      -76.4902828219    -0.0000369873   0.034901415   0.000612386     1023341061    9804625
   8  7  0      -76.4902933608    -0.0000105388   0.005603281   0.000125997     1023341705    9803969
   9  8  0      -76.4902938856    -0.0000005248   0.001349326   0.000035443     1023341471    9803939
  10  9  0      -76.4902939348    -0.0000000493   0.000385002   0.000010181     1023341343    9803947
  11 10  0      -76.4902939380    -0.0000000032   0.000120340   0.000001827     1023341247    9803949
  12 11  0      -76.4902939382    -0.0000000001   0.000062053   0.000000718     1023341245    9803957
  13 12  0      -76.4902939382     0.0000000000   0.000011302   0.000000228     1023341245    9803953
  14 13  0      -76.4902939382     0.0000000000   0.000003435   0.000000077     1023341247    9803951

          -----------------
          DENSITY CONVERGED
          -----------------
     TIME TO FORM FOCK OPERATORS=     878.4 SECONDS (      62.7 SEC/ITER)
     FOCK TIME ON FIRST ITERATION=      62.7, LAST ITERATION=      62.7
     TIME TO SOLVE SCF EQUATIONS=       1.7 SECONDS (       0.1 SEC/ITER)

 FINAL RHF ENERGY IS      -76.4902939382 AFTER  14 ITERATIONS

          ------------
          EIGENVECTORS
          ------------

                      1          2          3          4          5
                   -1.3865    -1.3865    -1.2519    -1.2227    -1.1748
                     A          A          A          A          A   
    1  H  1  S    0.000000   0.001407   0.100774   0.000000   0.094484
    2  H  1  S    0.000000  -0.020295  -0.123061   0.000000  -0.033713
    3  H  1  X    0.000000   0.000000   0.000000   0.000000   0.000000
    4  H  1  Y   -0.000155   0.000000   0.000000   0.000998   0.000000
    5  H  1  Z    0.000000   0.000187   0.013964   0.000000   0.011770
    6  H  1  S    0.000000   0.018774  -0.089480   0.000000  -0.096259
    7  H  1  X    0.000000   0.000000   0.000000   0.000000   0.000000
    8  H  1  Y    0.014892   0.000000   0.000000   0.018315   0.000000
    9  H  1  Z    0.000000   0.003767   0.012153   0.000000   0.002799
   10  H  2  S   -0.002042   0.002217   0.081906  -0.053284   0.044634
   11  H  2  S    0.013358  -0.024306  -0.101201   0.043441  -0.009107
   12  H  2  X    0.000000   0.000000   0.000000   0.000000   0.000000
   13  H  2  Y   -0.000282   0.000017   0.000638   0.000340   0.001429
   14  H  2  Z    0.000336  -0.000468  -0.012579   0.007862  -0.005971
   15  H  2  S   -0.029128   0.020959  -0.022042   0.050132  -0.044378
   16  H  2  X    0.000000   0.000000   0.000000   0.000000   0.000000
   17  H  2  Y    0.008825  -0.001323  -0.000742   0.005644   0.000591
   18  H  2  Z    0.003158  -0.003821  -0.008111   0.003174  -0.000243
   19  H  3  S    0.002042   0.002217   0.081906   0.053284   0.044634
   20  H  3  S   -0.013358  -0.024306  -0.101201  -0.043441  -0.009107
   21  H  3  X    0.000000   0.000000   0.000000   0.000000   0.000000
   22  H  3  Y   -0.000282  -0.000017  -0.000638   0.000340  -0.001429
   23  H  3  Z   -0.000336  -0.000468  -0.012579  -0.007862  -0.005971
   24  H  3  S    0.029128   0.020959  -0.022042  -0.050132  -0.044378
   25  H  3  X    0.000000   0.000000   0.000000   0.000000   0.000000
   26  H  3  Y    0.008825   0.001323   0.000742   0.005644  -0.000591
   27  H  3  Z   -0.003158  -0.003821  -0.008111  -0.003174  -0.000243
   28  H  4  S   -0.008046   0.008066   0.079305  -0.096927  -0.039630
   29  H  4  S    0.014033  -0.027328  -0.086592   0.082975   0.036335
   30  H  4  X    0.000000   0.000000   0.000000   0.000000   0.000000
   31  H  4  Y   -0.000400   0.000241  -0.000208   0.000687   0.002020
   32  H  4  Z   -0.001330   0.001442   0.010917  -0.012751  -0.004608
   33  H  4  S   -0.011257   0.005563   0.048998   0.059147   0.044273
   34  H  4  X    0.000000   0.000000   0.000000   0.000000   0.000000
   35  H  4  Y    0.016928  -0.006736  -0.001239   0.015148   0.004955
   36  H  4  Z    0.001768  -0.000377   0.005806  -0.006513  -0.005832
   37  H  5  S    0.008046   0.008066   0.079305   0.096927  -0.039630
   38  H  5  S   -0.014033  -0.027328  -0.086592  -0.082975   0.036335
   39  H  5  X    0.000000   0.000000   0.000000   0.000000   0.000000
   40  H  5  Y   -0.000400  -0.000241   0.000208   0.000687  -0.002020
   41  H  5  Z    0.001330   0.001442   0.010917   0.012751  -0.004608
   42  H  5  S    0.011257   0.005563   0.048998  -0.059147   0.044273
   43  H  5  X    0.000000   0.000000   0.000000   0.000000   0.000000
   44  H  5  Y    0.016928   0.006736   0.001239   0.015148  -0.004955
   45  H  5  Z   -0.001768  -0.000377   0.005806   0.006513  -0.005832
   46  H  6  S   -0.022236   0.022288   0.042766  -0.072368  -0.078429
   47  H  6  S    0.011669  -0.020080  -0.039072   0.048915   0.023608
   48  H  6  X    0.000000   0.000000   0.000000   0.000000   0.000000
   49  H  6  Y   -0.000296   0.000231   0.001375  -0.002102  -0.001346
   50  H  6  Z    0.004100  -0.004219  -0.006514   0.010350   0.010631
   51  H  6  S    0.041153  -0.024784   0.033107   0.023803   0.044404
   52  H  6  X    0.000000   0.000000   0.000000   0.000000   0.000000
   53  H  6  Y    0.005808  -0.001853  -0.003064   0.008034   0.002455
   54  H  6  Z    0.000250  -0.000188  -0.002331   0.004089   0.003691
   55  H  7  S    0.022236   0.022288   0.042766   0.072368  -0.078429
   56  H  7  S   -0.011669  -0.020080  -0.039072  -0.048915   0.023608
   57  H  7  X    0.000000   0.000000   0.000000   0.000000   0.000000
   58  H  7  Y   -0.000296  -0.000231  -0.001375  -0.002102   0.001346
   59  H  7  Z   -0.004100  -0.004219  -0.006514  -0.010350   0.010631
   60  H  7  S   -0.041153  -0.024784   0.033107  -0.023803   0.044404
   61  H  7  X    0.000000   0.000000   0.000000   0.000000   0.000000
   62  H  7  Y    0.005808   0.001853   0.003064   0.008034  -0.002455
   63  H  7  Z   -0.000250  -0.000188  -0.002331  -0.004089   0.003691
   64  H  8  S   -0.054290   0.053953   0.016750  -0.035971  -0.057515
   65  H  8  S    0.039434  -0.049298  -0.022471   0.017455   0.017546
   66  H  8  X    0.000000   0.000000   0.000000   0.000000   0.000000
   67  H  8  Y    0.001832  -0.001864   0.000682  -0.001418  -0.001720
   68  H  8  Z   -0.007882   0.007771   0.002107  -0.004501  -0.006817
   69  H  8  S    0.018396   0.002726   0.032287  -0.004427  -0.010913
   70  H  8  X    0.000000   0.000000   0.000000   0.000000   0.000000
   71  H  8  Y    0.016655  -0.012475  -0.001228   0.007646  -0.004322
   72  H  8  Z   -0.003297   0.004561   0.001938  -0.000209   0.000198
   73  H  9  S    0.054290   0.053953   0.016750   0.035971  -0.057515
   74  H  9  S   -0.039434  -0.049298  -0.022471  -0.017455   0.017546
   75  H  9  X    0.000000   0.000000   0.000000   0.000000   0.000000
   76  H  9  Y    0.001832   0.001864  -0.000682  -0.001418   0.001720
   77  H  9  Z    0.007882   0.007771   0.002107   0.004501  -0.006817
   78  H  9  S   -0.018396   0.002726   0.032287   0.004427  -0.010913
   79  H  9  X    0.000000   0.000000   0.000000   0.000000   0.000000
   80  H  9  Y    0.016655   0.012475   0.001228   0.007646   0.004322
   81  H  9  Z    0.003297   0.004561   0.001938   0.000209   0.000198
   82  H 10  S   -0.129604   0.129316  -0.026192   0.045357   0.061411
   83  H 10  S    0.004474  -0.005545  -0.000190   0.008475   0.003725
   84  H 10  X    0.000000   0.000000   0.000000   0.000000   0.000000
   85  H 10  Y   -0.005597   0.005617  -0.000749   0.001292   0.000991
   86  H 10  Z    0.017825  -0.017868   0.002946  -0.005257  -0.006507
   87  H 10  S    0.001191  -0.002770  -0.007022  -0.004294  -0.004466
   88  H 10  X    0.000000   0.000000   0.000000   0.000000   0.000000
   89  H 10  Y   -0.006336   0.006264   0.000238  -0.001421  -0.002447
   90  H 10  Z   -0.004377   0.003279  -0.004655   0.007528   0.007071
   91  H 11  S    0.129604   0.129316  -0.026192  -0.045357   0.061411
   92  H 11  S   -0.004474  -0.005545  -0.000190  -0.008475   0.003725
   93  H 11  X    0.000000   0.000000   0.000000   0.000000   0.000000
   94  H 11  Y   -0.005597  -0.005617   0.000749   0.001292  -0.000991
   95  H 11  Z   -0.017825  -0.017868   0.002946   0.005257  -0.006507
   96  H 11  S   -0.001191  -0.002770  -0.007022   0.004294  -0.004466
   97  H 11  X    0.000000   0.000000   0.000000   0.000000   0.000000
   98  H 11  Y   -0.006336  -0.006264  -0.000238  -0.001421   0.002447
   99  H 11  Z    0.004377   0.003279  -0.004655  -0.007528   0.007071
  100  H 12  S   -0.128805   0.128371  -0.031665   0.056253   0.077524
  101  H 12  S   -0.013949   0.018402   0.009495   0.000122  -0.003902
  102  H 12  X    0.000000   0.000000   0.000000   0.000000   0.000000
  103  H 12  Y   -0.015033   0.015108  -0.002783   0.005154   0.006594
  104  H 12  Z   -0.010793   0.010832  -0.002617   0.004761   0.006153
  105  H 12  S    0.003488  -0.003551   0.001028  -0.000511   0.003374
  106  H 12  X    0.000000   0.000000   0.000000   0.000000   0.000000
  107  H 12  Y    0.008596  -0.010272  -0.001689   0.000304   0.000212
  108  H 12  Z    0.010696  -0.010544   0.000465  -0.000477   0.001972
  109  H 13  S    0.128805   0.128371  -0.031665  -0.056253   0.077524
  110  H 13  S    0.013949   0.018402   0.009495  -0.000122  -0.003902
  111  H 13  X    0.000000   0.000000   0.000000   0.000000   0.000000
  112  H 13  Y   -0.015033  -0.015108   0.002783   0.005154  -0.006594
  113  H 13  Z    0.010793   0.010832  -0.002617  -0.004761   0.006153
  114  H 13  S   -0.003488  -0.003551   0.001028   0.000511   0.003374
  115  H 13  X    0.000000   0.000000   0.000000   0.000000   0.000000
  116  H 13  Y    0.008596   0.010272   0.001689   0.000304  -0.000212
  117  H 13  Z   -0.010696  -0.010544   0.000465   0.000477   0.001972
  118  C 14  S    0.000000   0.005478   0.447816   0.000000   0.420799
  119  C 14  S    0.000000  -0.172608   0.160346   0.000000   0.028416
  120  C 14  X    0.000000   0.000000   0.000000   0.000000   0.000000
  121  C 14  Y   -0.002151   0.000000   0.000000  -0.103582   0.000000
  122  C 14  Z    0.000000  -0.000337  -0.054343   0.000000  -0.052897
  123  C 14  X    0.000000   0.000000   0.000000   0.000000   0.000000
  124  C 14  Y    0.333749   0.000000   0.000000   0.629082   0.000000
  125  C 14  Z    0.000000   0.019716  -0.280550   0.000000  -0.037068
  126  C 14 XX    0.000000  -0.000161  -0.011939   0.000000  -0.010986
  127  C 14 YY    0.000000   0.000264   0.017742   0.000000   0.010514
  128  C 14 ZZ    0.000000  -0.000104  -0.005802   0.000000   0.000472
  129  C 14 XY    0.000000   0.000000   0.000000   0.000000   0.000000
  130  C 14 XZ    0.000000   0.000000   0.000000   0.000000   0.000000
  131  C 14 YZ   -0.000298   0.000000   0.000000   0.005876   0.000000
  132  C 14  S    0.000000  -0.010164  -0.379263   0.000000  -0.397008
  133  C 14  X    0.000000   0.000000   0.000000   0.000000   0.000000
  134  C 14  Y   -0.027106   0.000000   0.000000  -0.466934   0.000000
  135  C 14  Z    0.000000   0.000063   0.006835   0.000000   0.048378
  136  C 14 XX    0.000000   0.008454   0.008400   0.000000   0.021717
  137  C 14 YY    0.000000  -0.033308  -0.200603   0.000000  -0.064529
  138  C 14 ZZ    0.000000   0.024854   0.192203   0.000000   0.042812
  139  C 14 XY    0.000000   0.000000   0.000000   0.000000   0.000000
  140  C 14 XZ    0.000000   0.000000   0.000000   0.000000   0.000000
  141  C 14 YZ   -0.084863   0.000000   0.000000  -0.133670   0.000000
  142  C 15  S   -0.009104   0.008892   0.394423  -0.259575   0.218053
  143  C 15  S    0.126702  -0.156042   0.139837  -0.152927  -0.197429
  144  C 15  X    0.000000   0.000000   0.000000   0.000000   0.000000
  145  C 15  Y   -0.003377   0.002797  -0.015691  -0.071104  -0.113669
  146  C 15  Z   -0.001130   0.001171   0.064908  -0.045693   0.032808
  147  C 15  X    0.000000   0.000000   0.000000   0.000000   0.000000
  148  C 15  Y    0.395714  -0.172703   0.131860   0.552775   0.014836
  149  C 15  Z    0.025579  -0.008604   0.257290  -0.108135  -0.034044
  150  C 15 XX    0.000089  -0.000034  -0.008721   0.005784  -0.005014
  151  C 15 YY   -0.000545   0.000554   0.014445  -0.007833   0.005236
[...]
            258  C 19 ZZ      0.02039     0.09692
            259  C 19 XY     -0.00147     0.05832
            260  C 19 XZ      0.06560     0.01576
            261  C 19 YZ      0.00000     0.11682
            262  C 20  S      1.49284     0.31142
            263  C 20  S     -1.16841     0.11152
            264  C 20  X      1.14420     0.70636
            265  C 20  Y      1.12005     0.71704
            266  C 20  Z      1.17666     0.76671
            267  C 20  X     -0.01806     0.19482
            268  C 20  Y     -0.13068     0.16210
            269  C 20  Z     -0.24471     0.19770
            270  C 20 XX      0.02351     0.04503
            271  C 20 YY      0.01217     0.16722
            272  C 20 ZZ      0.00761     0.14668
            273  C 20 XY      0.00568     0.01307
            274  C 20 XZ      0.02835     0.00774
            275  C 20 YZ      0.00000     0.06392
            276  C 20  S     -0.55572     0.03799
            277  C 20  X     -0.00351     0.01800
            278  C 20  Y      0.30289     0.03532
            279  C 20  Z     -0.01000     0.02322
            280  C 20 XX      0.03212     0.00035
            281  C 20 YY      0.00420     0.09514
            282  C 20 ZZ      0.02039     0.09692
            283  C 20 XY     -0.00147     0.05832
            284  C 20 XZ      0.06560     0.01576
            285  C 20 YZ      0.00000     0.11682
            286  C 21  S      1.52292     0.31518
            287  C 21  S     -0.00428     0.10946
            288  C 21  X      0.77059     0.45096
            289  C 21  Y      1.11169     0.68403
            290  C 21  Z      1.25319     0.79764
            291  C 21  X     -0.08142     0.13472
            292  C 21  Y      0.10859     0.14957
            293  C 21  Z     -0.22713     0.18198
            294  C 21 XX      0.03201     0.04321
            295  C 21 YY      0.02061     0.17676
            296  C 21 ZZ      0.04102     0.15428
            297  C 21 XY      0.00504     0.06998
            298  C 21 XZ      0.02990     0.00783
            299  C 21 YZ      0.00000     0.06364
            300  C 21  S     -0.15105     0.03675
            301  C 21  X      0.00230     0.01583
            302  C 21  Y      0.05062     0.03081
            303  C 21  Z      0.02164     0.01950
            304  C 21 XX      0.01571     0.00059
            305  C 21 YY      0.02247     0.12163
            306  C 21 ZZ      0.05376     0.09348
            307  C 21 XY     -0.00477     0.15171
            308  C 21 XZ      0.04944     0.01527
            309  C 21 YZ      0.00000     0.11582
            310  C 22  S      1.52292     0.31518
            311  C 22  S     -0.00428     0.10946
            312  C 22  X      0.77059     0.45096
            313  C 22  Y      1.11169     0.68403
            314  C 22  Z      1.25319     0.79764
            315  C 22  X     -0.08142     0.13472
            316  C 22  Y      0.10859     0.14957
            317  C 22  Z     -0.22713     0.18198
            318  C 22 XX      0.03201     0.04321
            319  C 22 YY      0.02061     0.17676
            320  C 22 ZZ      0.04102     0.15428
            321  C 22 XY      0.00504     0.06998
            322  C 22 XZ      0.02990     0.00783
            323  C 22 YZ      0.00000     0.06364
            324  C 22  S     -0.15105     0.03675
            325  C 22  X      0.00230     0.01583
            326  C 22  Y      0.05062     0.03081
            327  C 22  Z      0.02164     0.01950
            328  C 22 XX      0.01571     0.00059
            329  C 22 YY      0.02247     0.12163
            330  C 22 ZZ      0.05376     0.09348
            331  C 22 XY     -0.00477     0.15171
            332  C 22 XZ      0.04944     0.01527
            333  C 22 YZ      0.00000     0.11582
            334  N 23  S      1.62490     0.42285
            335  N 23  S     -0.57167     0.15314
            336  N 23  X      1.55808     1.07329
            337  N 23  Y      1.27959     0.87788
            338  N 23  Z      1.32394     0.91485
            339  N 23  X      0.08111     0.30400
            340  N 23  Y     -0.21149     0.27398
            341  N 23  Z     -0.15246     0.29960
            342  N 23 XX      0.00945     0.08116
            343  N 23 YY      0.00600     0.15662
            344  N 23 ZZ      0.00347     0.14523
            345  N 23 XY      0.00036     0.00472
            346  N 23 XZ      0.01295     0.00054
            347  N 23 YZ      0.00000     0.02862
            348  N 23  S     -0.17632     0.04237
            349  N 23  X     -0.00174     0.02392
            350  N 23  Y     -0.02376     0.03592
            351  N 23  Z     -0.04880     0.02426
            352  N 23 XX     -0.00579     0.00015
            353  N 23 YY     -0.00097     0.07034
            354  N 23 ZZ      0.01038     0.05222
            355  N 23 XY      0.00064     0.03654
            356  N 23 XZ     -0.00364     0.00330
            357  N 23 YZ      0.00000     0.10873
            358  N 24  S      1.62490     0.42285
            359  N 24  S     -0.57167     0.15314
            360  N 24  X      1.55808     1.07329
            361  N 24  Y      1.27959     0.87788
            362  N 24  Z      1.32394     0.91485
            363  N 24  X      0.08111     0.30400
            364  N 24  Y     -0.21149     0.27398
            365  N 24  Z     -0.15246     0.29960
            366  N 24 XX      0.00945     0.08116
            367  N 24 YY      0.00600     0.15662
            368  N 24 ZZ      0.00347     0.14523
            369  N 24 XY      0.00036     0.00472
            370  N 24 XZ      0.01295     0.00054
            371  N 24 YZ      0.00000     0.02862
            372  N 24  S     -0.17632     0.04237
            373  N 24  X     -0.00174     0.02392
            374  N 24  Y     -0.02376     0.03592
            375  N 24  Z     -0.04880     0.02426
            376  N 24 XX     -0.00579     0.00015
            377  N 24 YY     -0.00097     0.07034
            378  N 24 ZZ      0.01038     0.05222
            379  N 24 XY      0.00064     0.03654
            380  N 24 XZ     -0.00364     0.00330
            381  N 24 YZ      0.00000     0.10873

          ----- MULLIKEN ATOMIC OVERLAP POPULATIONS -----
          (OFF-DIAGONAL ELEMENTS NEED TO BE MULTIPLIED BY 2)

             1           2           3           4           5

    1    1.0438840
    2    0.0100808   0.9409780
    3    0.0100808  -0.0413508   0.9409780
    4   -0.0520479  -0.0096249  -0.0009041   0.9927704
    5   -0.0520479  -0.0009041  -0.0096249   0.0053601   0.9927704
    6    0.0000270  -0.0278880   0.0030936  -0.0071919  -0.0004702
    7    0.0000270   0.0030936  -0.0278880  -0.0004702  -0.0071919
    8    0.0012465   0.0040000  -0.0005578  -0.0151211   0.0001577
    9    0.0012465  -0.0005578   0.0040000   0.0001577  -0.0151211
   10    0.0004824   0.0017746  -0.0000460  -0.0025593  -0.0000241
   11    0.0004824  -0.0000460   0.0017746  -0.0000241  -0.0025593
   12   -0.0002840   0.0000023   0.0000266   0.0022045   0.0000184
   13   -0.0002840   0.0000266   0.0000023   0.0000184   0.0022045
   14   -0.1454056   0.1248805   0.1248805  -0.1438149  -0.1438149
   15    0.1597049   0.0882921  -0.1710510   0.1994091   0.0428307
   16    0.1597049  -0.1710510   0.0882921   0.0428307   0.1994091
   17   -0.0892308   0.0726885   0.0507556  -0.2367216  -0.0206863
   18   -0.0892308   0.0507556   0.0726885  -0.0206863  -0.2367216
   19   -0.0070614  -0.0757913  -0.0101822   0.2045275  -0.0019439
   20   -0.0070614  -0.0101822  -0.0757913  -0.0019439   0.2045275
   21   -0.0287548   0.0309743  -0.0025597   0.0470353   0.0032266
   22   -0.0287548  -0.0025597   0.0309743   0.0032266   0.0470353
   23    0.0020881  -0.0014878   0.0005336  -0.0071465  -0.0000943
   24    0.0020881   0.0005336  -0.0014878  -0.0000943  -0.0071465

             6           7           8           9          10

    6    0.8922763
    7   -0.0001347   0.8922763
    8   -0.0048394   0.0000066   0.9450897
    9    0.0000066  -0.0048394   0.0000054   0.9450897
   10   -0.0088139   0.0000005   0.0106784  -0.0000022   0.5959300
   11    0.0000005  -0.0088139  -0.0000022   0.0106784  -0.0000003
   12   -0.0028246  -0.0000031   0.0007115  -0.0000002  -0.0288277
   13   -0.0000031  -0.0028246  -0.0000002   0.0007115   0.0000002
   14    0.0635656   0.0635656  -0.0286074  -0.0286074  -0.0016973
   15   -0.1626973  -0.0135251   0.0579226  -0.0032680   0.0137452
   16   -0.0135251  -0.1626973  -0.0032680   0.0579226   0.0000437
   17    0.1341631  -0.0013925  -0.1926746   0.0021793  -0.0149757
   18   -0.0013925   0.1341631   0.0021793  -0.1926746  -0.0000545
   19    0.0845073  -0.0002006   0.3215795  -0.0004107   0.0357149
   20   -0.0002006   0.0845073  -0.0004107   0.3215795   0.0000046
   21    0.0829050  -0.0000120   0.0230091   0.0000507  -0.0315832
   22   -0.0000120   0.0829050   0.0000507   0.0230091  -0.0000065
   23   -0.0038282  -0.0000128  -0.0168756  -0.0000021   0.3570107
   24   -0.0000128  -0.0038282  -0.0000021  -0.0168756   0.0000006

            11          12          13          14          15

   11    0.5959300
   12    0.0000002   0.6009475
   13   -0.0288277  -0.0000007   0.6009475
   14   -0.0016973  -0.0011227  -0.0011227  13.0169477
   15    0.0000437   0.0030058   0.0003780  -4.9092804  14.2976451
   16    0.0137452   0.0003780   0.0030058  -4.9092804  -1.6964997
   17   -0.0000545  -0.0115929  -0.0000413  -0.0511535  -4.2499711
   18   -0.0149757  -0.0000413  -0.0115929  -0.0511535   0.9364525
   19    0.0000046  -0.0018358  -0.0000077   0.7795838  -1.4407635
   20    0.0357149  -0.0000077  -0.0018358   0.7795838  -0.2813683
   21   -0.0000065   0.0116194   0.0000059  -0.1143867   0.5168407
   22   -0.0315832   0.0000059   0.0116195  -0.1143867   0.0172474
   23    0.0000006   0.3957216  -0.0000003   0.0205240   0.0090898
   24    0.3570107  -0.0000003   0.3957216   0.0205240  -0.0008876

            16          17          18          19          20

   16   14.2976450
   17    0.9364525   9.9339107
   18   -4.2499711  -0.1953383   9.9339107
   19   -0.2813683  -2.1399026   0.0708682   7.6463170
   20   -1.4407635   0.0708682  -2.1399026  -0.0218032   7.6463170
   21    0.0172474   0.2160298   0.0101888  -1.8677843  -0.0007512
   22    0.5168407   0.0101888   0.2160298  -0.0007512  -1.8677842
   23   -0.0008876   0.0711454  -0.0002191   0.0105151  -0.0000895
   24    0.0090898  -0.0002191   0.0711454  -0.0000895   0.0105151

            21          22          23          24

   21    5.3897177
   22    0.0003428   5.3897177
   23    0.3395226  -0.0000051   3.5387185
   24   -0.0000051   0.3395226   0.0000000   3.5387185

          TOTAL MULLIKEN AND LOWDIN ATOMIC POPULATIONS
       ATOM         MULL.POP.    CHARGE          LOW.POP.     CHARGE
    1 H             0.890980    0.109020         0.886289    0.113711
    2 H             0.986637    0.013363         0.902374    0.097626
    3 H             0.986637    0.013363         0.902374    0.097626
    4 H             0.999189    0.000811         0.885916    0.114084
    5 H             0.999189    0.000811         0.885916    0.114084
    6 H             1.026711   -0.026711         0.902824    0.097176
    7 H             1.026711   -0.026711         0.902824    0.097176
    8 H             1.104278   -0.104278         0.870175    0.129825
    9 H             1.104278   -0.104278         0.870175    0.129825
   10 H             0.926795    0.073205         0.833736    0.166264
   11 H             0.926795    0.073205         0.833736    0.166264
   12 H             0.968101    0.031899         0.832876    0.167124
   13 H             0.968101    0.031899         0.832876    0.167124
   14 C             4.348524   -0.348524         4.023056   -0.023056
   15 C             3.413296    0.586704         4.106186   -0.106186
   16 C             3.413296    0.586704         4.106186   -0.106186
   17 C             4.294427   -0.294427         4.027268   -0.027268
   18 C             4.294427   -0.294427         4.027268   -0.027268
   19 C             3.303722    0.696278         4.109136   -0.109136
   20 C             3.303722    0.696278         4.109136   -0.109136
   21 C             4.642873   -0.642873         3.940624    0.059376
   22 C             4.642873   -0.642873         3.940624    0.059376
   23 N             4.714221    0.285779         5.134213   -0.134213
   24 N             4.714221    0.285779         5.134213   -0.134213

          MULLIKEN SPHERICAL HARMONIC POPULATIONS
       ATOM           S       P       D      F      G      H      I    TOTAL
    1 H             0.92   -0.03    0.00   0.00   0.00   0.00   0.00    0.89
    2 H             0.99   -0.01    0.00   0.00   0.00   0.00   0.00    0.99
    3 H             0.99   -0.01    0.00   0.00   0.00   0.00   0.00    0.99
    4 H             1.03   -0.03    0.00   0.00   0.00   0.00   0.00    1.00
    5 H             1.03   -0.03    0.00   0.00   0.00   0.00   0.00    1.00
    6 H             1.03    0.00    0.00   0.00   0.00   0.00   0.00    1.03
    7 H             1.03    0.00    0.00   0.00   0.00   0.00   0.00    1.03
    8 H             1.10    0.00    0.00   0.00   0.00   0.00   0.00    1.10
    9 H             1.10    0.00    0.00   0.00   0.00   0.00   0.00    1.10
   10 H             0.87    0.06    0.00   0.00   0.00   0.00   0.00    0.93
   11 H             0.87    0.06    0.00   0.00   0.00   0.00   0.00    0.93
   12 H             0.89    0.08    0.00   0.00   0.00   0.00   0.00    0.97
   13 H             0.89    0.08    0.00   0.00   0.00   0.00   0.00    0.97
   14 C             0.12    3.91    0.32   0.00   0.00   0.00   0.00    4.35
   15 C            -0.53    3.71    0.23   0.00   0.00   0.00   0.00    3.41
   16 C            -0.53    3.71    0.23   0.00   0.00   0.00   0.00    3.41
   17 C             0.48    3.49    0.32   0.00   0.00   0.00   0.00    4.29
   18 C             0.48    3.49    0.32   0.00   0.00   0.00   0.00    4.29
   19 C            -0.23    3.34    0.20   0.00   0.00   0.00   0.00    3.30
   20 C            -0.23    3.34    0.20   0.00   0.00   0.00   0.00    3.30
   21 C             1.37    3.01    0.27   0.00   0.00   0.00   0.00    4.64
   22 C             1.37    3.01    0.27   0.00   0.00   0.00   0.00    4.64
   23 N             0.88    3.80    0.03   0.00   0.00   0.00   0.00    4.71
   24 N             0.88    3.80    0.03   0.00   0.00   0.00   0.00    4.71

          -------------------------------
          BOND ORDER AND VALENCE ANALYSIS     BOND ORDER THRESHOLD=0.050
          -------------------------------

                   BOND                       BOND                       BOND
  ATOM PAIR DIST  ORDER      ATOM PAIR DIST  ORDER      ATOM PAIR DIST  ORDER
    1  14  1.088  0.411        1  15  2.121  0.167        1  16  2.121  0.167
    1  17  2.626 -0.053        1  18  2.626 -0.053        2  14  2.136  0.299
    2  15  1.085  0.356        2  16  2.721 -0.082        2  17  2.132  0.188
    2  18  4.095  0.051        2  19  2.725 -0.061        2  21  4.088  0.061
    3  14  2.136  0.299        3  15  2.721 -0.082        3  16  1.085  0.356
    3  17  4.095  0.051        3  18  2.132  0.188        3  20  2.725 -0.061
    3  22  4.088  0.061        4  15  2.114  0.278        4  17  1.088  0.502
    4  19  2.124  0.146        4  21  2.602 -0.113        5  16  2.114  0.278
    5  18  1.088  0.502        5  20  2.124  0.146        5  22  2.602 -0.113
    6  17  2.147  0.307        6  19  1.085  0.392        6  21  2.130  0.141
    7  18  2.147  0.307        7  20  1.085  0.392        7  22  2.130  0.141
    8  15  4.009  0.078        8  17  2.627 -0.094        8  19  2.126  0.211
    8  21  1.085  0.706        9  16  4.009  0.078        9  18  2.627 -0.094
    9  20  2.126  0.211        9  22  1.085  0.706       10  21  2.040  0.052
   10  23  1.006  0.948       11  22  2.040  0.052       11  24  1.006  0.948
   12  21  2.035  0.070       12  23  1.003  1.004       13  22  2.035  0.070
   13  24  1.003  1.004       14  15  1.388  2.418       14  16  1.388  2.418
   14  17  2.421  1.994       14  18  2.421  1.994       14  19  3.728 -1.549
   14  20  3.728 -1.549       14  21  4.823  0.844       14  22  4.823  0.844
   15  16  2.466  2.228       15  17  1.381  2.145       15  18  3.720 -1.622
   15  19  2.467  1.436       15  20  4.930  0.640       15  21  3.702 -0.389
   16  17  3.720 -1.622       16  18  1.381  2.145       16  19  4.930  0.640
   16  20  2.467  1.436       16  22  3.702 -0.389       17  18  4.839  1.247
   17  19  1.393  2.537       17  20  6.140  0.077       17  21  2.405  0.849
   17  22  7.237 -0.110       18  19  6.140  0.077       18  20  1.393  2.537
   18  21  7.237 -0.110       18  22  2.405  0.849       19  21  1.373  1.664
   19  23  2.402  0.105       20  22  1.373  1.664       20  24  2.402  0.105
   21  23  1.326  1.574       22  24  1.326  1.574

                       TOTAL       BONDED        FREE
      ATOM            VALENCE     VALENCE     VALENCE
    1 H                 0.672       0.672       0.000
    2 H                 0.847       0.847       0.000
    3 H                 0.847       0.847       0.000
    4 H                 0.836       0.836       0.000
    5 H                 0.836       0.836       0.000
    6 H                 0.862       0.862       0.000
    7 H                 0.862       0.862       0.000
    8 H                 0.928       0.928       0.000
    9 H                 0.928       0.928       0.000
   10 H                 1.042       1.042       0.000
   11 H                 1.042       1.042       0.000
   12 H                 1.101       1.101       0.000
   13 H                 1.101       1.101       0.000
   14 C                 8.529       8.529       0.000
   15 C                 7.719       7.719       0.000
   16 C                 7.719       7.719       0.000
   17 C                 8.029       8.029       0.000
   18 C                 8.029       8.029       0.000
   19 C                 5.577       5.577       0.000
   20 C                 5.577       5.577       0.000
   21 C                 5.331       5.331       0.000
   22 C                 5.331       5.331       0.000
   23 N                 3.628       3.628       0.000
   24 N                 3.628       3.628       0.000

          ---------------------
          ELECTROSTATIC MOMENTS
          ---------------------

 POINT   1           X           Y           Z (BOHR)    CHARGE
                 0.000000    0.000000   -0.005040        1.00 (A.U.)
         DX          DY          DZ         /D/  (DEBYE)
     0.000000    0.000000    1.844931    1.844931
 ...... END OF PROPERTY EVALUATION ......
 ON NODE 0, STEP CPU TIME =     0.61 TOTAL CPU TIME =      881.9 (   14.7 MIN)
 TOTAL WALL CLOCK TIME=      952.0 SECONDS, CPU UTILIZATION IS  92.64%
               1139909  WORDS OF DYNAMIC MEMORY USED
 EXECUTION OF GAMESS TERMINATED NORMALLY Tue Sep 26 16:59:10 2017
 DDI: 1128 bytes (0.0 MB / 0 MWords) used by master data server.

 ----------------------------------------
 CPU timing information for all processes
 ========================================
 0: 880.931054 + 0.992062 = 881.923116
 1: 888.123504 + 0.504031 = 888.627535
 2: 893.343830 + 0.676042 = 894.019872
 3: 889.055562 + 0.688043 = 889.743605
 4: 887.775482 + 0.656041 = 888.431523
 5: 884.371269 + 0.728045 = 885.099314
 6: 886.683414 + 0.584036 = 887.267450
 7: 883.499215 + 0.648040 = 884.147255
 ----------------------------------------
 ddikick.x: exited gracefully.
----- accounting info -----
Tue Sep 26 16:59:13 CEST 2017
Files used on the master node lpqlx139 were:
-rw-r--r-- 1 scemama scemama  2247286 Sep 26 16:59 /dev/shm//gamess/C9.dat
-rw-r--r-- 1 scemama scemama     2049 Sep 26 16:43 /dev/shm//gamess/C9.F05
-rw-r--r-- 1 scemama scemama 38086080 Sep 26 16:59 /dev/shm//gamess/C9.F10
0.096u 0.004s 15:56.80 0.0%	0+0k 0+0io 0pf+0w
