----- GAMESS execution script -----
This job is running on host lpqlx139
under operating system Linux at Fri Sep 22 20:14:43 CEST 2017
Available scratch disk space (Kbyte units) at beginning of the job is
Filesystem     1K-blocks  Used Available Use% Mounted on
tmpfs            6592140   708   6591432   1% /run/shm

 Distributed Data Interface kickoff program.
 Initiating 1 compute processes on 1 nodes to run the following command:
 /usr/local/gamess/gamess.01.x C1 

          ******************************************************
          *         GAMESS VERSION = 22 FEB 2006 (R5)          *
          *             FROM IOWA STATE UNIVERSITY             *
          * M.W.SCHMIDT, K.K.BALDRIDGE, J.A.BOATZ, S.T.ELBERT, *
          *   M.S.GORDON, J.H.JENSEN, S.KOSEKI, N.MATSUNAGA,   *
          *          K.A.NGUYEN, S.J.SU, T.L.WINDUS,           *
          *       TOGETHER WITH M.DUPUIS, J.A.MONTGOMERY       *
          *         J.COMPUT.CHEM.  14, 1347-1363(1993)        *
          ***************** AMD 64 BIT VERSION *****************

     SINCE 1993, STUDENTS AND POSTDOCS WORKING AT IOWA STATE UNIVERSITY
     AND ALSO IN THEIR VARIOUS JOBS AFTER LEAVING ISU HAVE MADE IMPORTANT
     CONTRIBUTIONS TO THE CODE:
     IVANA ADAMOVIC, CHRISTINE AIKENS, YURI ALEXEEV, POOJA ARORA, ROB BELL,
     PRADIPTA BANDYOPADHYAY, BRETT BODE, GALINA CHABAN, WEI CHEN,
     CHEOL HO CHOI, PAUL DAY, TIM DUDLEY, DMITRI FEDOROV, GRAHAM FLETCHER,
     MARK FREITAG, KURT GLAESEMANN, GRANT MERRILL, TAKESHI NAGATA,
     HEATHER NETZLOFF, BOSILJKA NJEGIC, RYAN OLSON, MIKE PAK, JIM SHOEMAKER,
     LYUDMILA SLIPCHENKO, JIE SONG, TETSUYA TAKETSUGU, SIMON WEBB.

     ADDITIONAL CODE HAS BEEN PROVIDED BY COLLABORATORS IN OTHER GROUPS:
     IOWA STATE UNIVERSITY: JOE IVANIC, KLAUS RUEDENBERG
     UNIVERSITY OF TOKYO: KIMIHIKO HIRAO, HARUYUKI NAKANO, TAKAHITO
          NAKAJIMA, TAKAO TSUNEDA, MUNEAKI KAMIYA, SUSUMU YANAGISAWA,
          KIYOSHI YAGI
     UNIVERSITY OF SOUTHERN DENMARK: FRANK JENSEN
     UNIVERSITY OF IOWA: VISVALDAS KAIRYS, HUI LI
     NATIONAL INST. OF STANDARDS AND TECHNOLOGY: WALT STEVENS, DAVID GARMER
     UNIVERSITY OF PISA: BENEDETTA MENNUCCI, JACOPO TOMASI
     UNIVERSITY OF MEMPHIS: HENRY KURTZ, PRAKASHAN KORAMBATH
     UNIVERSITY OF ALBERTA: MARIUSZ KLOBUKOWSKI
     UNIVERSITY OF NEW ENGLAND: MARK SPACKMAN
     MIE UNIVERSITY: HIROAKI UMEDA
     MICHIGAN STATE UNIVERSITY:
          KAROL KOWALSKI, MARTA WLOCH, PIOTR PIECUCH
     UNIVERSITY OF SILESIA: MONIKA MUSIAL, STANISLAW KUCHARSKI
     FACULTES UNIVERSITAIRES NOTRE-DAME DE LA PAIX:
          OLIVIER QUINET, BENOIT CHAMPAGNE
     UNIVERSITY OF CALIFORNIA - SANTA BARBARA: BERNARD KIRTMAN
     INSTITUTE FOR MOLECULAR SCIENCE: KAZUYA ISHIMURA AND SHIGERU NAGASE
     UNIVERSITY OF NOTRE DAME: DAN CHIPMAN
     KYUSHU UNIVERSITY:
          FENG LONG GU, JACEK KORCHOWIEC, MARCIN MAKOWSKI, AND YURIKO AOKI
     PENNSYLVANIA STATE UNIVERSITY:
          TZVETELIN IORDANOV, CHET SWALINA, SHARON HAMMES-SCHIFFER

 EXECUTION OF GAMESS BEGUN Fri Sep 22 20:14:43 2017

            ECHO OF THE FIRST FEW INPUT CARDS -
 INPUT CARD> $CONTRL                                                                        
 INPUT CARD>   EXETYP=RUN COORD=UNIQUE  UNITS=ANGS                                          
 INPUT CARD>   RUNTYP=ENERGY SCFTYP=RHF CITYP=NONE                                          
 INPUT CARD>   MAXIT=100                                                                    
 INPUT CARD>   ISPHER=1                                                                     
 INPUT CARD>   MULT=1                                                                       
 INPUT CARD>   ICHARG=1                                                                     
 INPUT CARD>   MPLEVL=0                                                                     
 INPUT CARD> $END                                                                           
 INPUT CARD>                                                                                
 INPUT CARD> $GUESS                                                                         
 INPUT CARD>  GUESS=HUCKEL                                                                  
 INPUT CARD> $END                                                                           
 INPUT CARD>                                                                                
 INPUT CARD> $BASIS                                                                         
 INPUT CARD>  GBASIS=ACCD                                                                   
 INPUT CARD> $END                                                                           
 INPUT CARD>                                                                                
 INPUT CARD> $DATA                                                                          
 INPUT CARD>C1                                                                              
 INPUT CARD>C1                                                                              
 INPUT CARD>H  1.0   0.000000    0.000000    1.508704                                       
 INPUT CARD>H  1.0   0.000000    1.258360   -1.178487                                       
 INPUT CARD>H  1.0   0.000000   -1.258360   -1.178487                                       
 INPUT CARD>H  1.0   0.000000    2.005112    0.371143                                       
 INPUT CARD>H  1.0   0.000000   -2.005112    0.371143                                       
 INPUT CARD>C  6.0   0.000000    0.000000    0.424165                                       
 INPUT CARD>N  7.0   0.000000    1.158087   -0.174215                                       
 INPUT CARD>N  7.0   0.000000   -1.158087   -0.174215                                       
 INPUT CARD> $END                                                                           
 INPUT CARD>                                                                                

 ..... DONE SETTING UP THE RUN .....
    1000000 WORDS OF MEMORY AVAILABLE

     BASIS OPTIONS
     -------------
     GBASIS=ACCD         IGAUSS=       0      POLAR=NONE    
     NDFUNC=       0     NFFUNC=       0     DIFFSP=       F
     NPFUNC=       0      DIFFS=       F


     RUN TITLE
     ---------
 C1                                                                              

 THE POINT GROUP OF THE MOLECULE IS C1      
 THE ORDER OF THE PRINCIPAL AXIS IS     0

 ATOM      ATOMIC                      COORDINATES (BOHR)
           CHARGE         X                   Y                   Z
 H           1.0     0.0000000000        0.0000000000        2.8510371566
 H           1.0     0.0000000000        2.3779555939       -2.2270175101
 H           1.0     0.0000000000       -2.3779555939       -2.2270175101
 H           1.0     0.0000000000        3.7891122547        0.7013585723
 H           1.0     0.0000000000       -3.7891122547        0.7013585723
 C           6.0     0.0000000000        0.0000000000        0.8015556236
 N           7.0     0.0000000000        2.1884670999       -0.3292186130
 N           7.0     0.0000000000       -2.1884670999       -0.3292186130

          INTERNUCLEAR DISTANCES (ANGS.)
          ------------------------------

                    H              H              H              H         

  1  H               0.0000000      2.9672319 *    2.9672319 *    2.3053241 *  
  2  H               2.9672319 *    0.0000000      2.5167200 *    1.7201720 *  
  3  H               2.9672319 *    2.5167200 *    0.0000000      3.6127002    
  4  H               2.3053241 *    1.7201720 *    3.6127002      0.0000000    
  5  H               2.3053241 *    3.6127002      1.7201720 *    4.0102240    
  6  C               1.0845390 *    2.0376367 *    2.0376367 *    2.0058129 *  
  7  N               2.0428857 *    1.0092655 *    2.6168260 *    1.0074059 *  
  8  N               2.0428857 *    2.6168260 *    1.0092655 *    3.2098665    

                    H              C              N              N         

  1  H               2.3053241 *    1.0845390 *    2.0428857 *    2.0428857 *  
  2  H               3.6127002      2.0376367 *    1.0092655 *    2.6168260 *  
  3  H               1.7201720 *    2.0376367 *    2.6168260 *    1.0092655 *  
  4  H               4.0102240      2.0058129 *    1.0074059 *    3.2098665    
  5  H               0.0000000      2.0058129 *    3.2098665      1.0074059 *  
  6  C               2.0058129 *    0.0000000      1.3035429 *    1.3035429 *  
  7  N               3.2098665      1.3035429 *    0.0000000      2.3161740 *  
  8  N               1.0074059 *    1.3035429 *    2.3161740 *    0.0000000    

  * ... LESS THAN  3.000


     ATOMIC BASIS SET
     ----------------
 THE CONTRACTED PRIMITIVE FUNCTIONS HAVE BEEN UNNORMALIZED
 THE CONTRACTED BASIS FUNCTIONS ARE NOW NORMALIZED TO UNITY

  SHELL TYPE  PRIMITIVE        EXPONENT          CONTRACTION COEFFICIENT(S)

 H         

      1   S       1            13.0100000    0.033498726390
      1   S       2             1.9620000    0.234800801174
      1   S       3             0.4446000    0.813682957883

      2   S       4             0.1220000    1.000000000000

      3   P       5             0.7270000    1.000000000000

      4   S       6             0.0297400    1.000000000000

      5   P       7             0.1410000    1.000000000000

 H         

      6   S       8            13.0100000    0.033498726390
      6   S       9             1.9620000    0.234800801174
      6   S      10             0.4446000    0.813682957883

      7   S      11             0.1220000    1.000000000000

      8   P      12             0.7270000    1.000000000000

      9   S      13             0.0297400    1.000000000000

     10   P      14             0.1410000    1.000000000000

 H         

     11   S      15            13.0100000    0.033498726390
     11   S      16             1.9620000    0.234800801174
     11   S      17             0.4446000    0.813682957883

     12   S      18             0.1220000    1.000000000000

     13   P      19             0.7270000    1.000000000000

     14   S      20             0.0297400    1.000000000000

     15   P      21             0.1410000    1.000000000000

 H         

     16   S      22            13.0100000    0.033498726390
     16   S      23             1.9620000    0.234800801174
     16   S      24             0.4446000    0.813682957883

     17   S      25             0.1220000    1.000000000000

     18   P      26             0.7270000    1.000000000000

     19   S      27             0.0297400    1.000000000000

     20   P      28             0.1410000    1.000000000000

 H         

     21   S      29            13.0100000    0.033498726390
     21   S      30             1.9620000    0.234800801174
     21   S      31             0.4446000    0.813682957883

     22   S      32             0.1220000    1.000000000000

     23   P      33             0.7270000    1.000000000000

     24   S      34             0.0297400    1.000000000000

     25   P      35             0.1410000    1.000000000000

 C         

     26   S      36          6665.0000000    0.000691583963
     26   S      37          1000.0000000    0.005325796153
     26   S      38           228.0000000    0.027060721042
     26   S      39            64.7100000    0.101656846141
     26   S      40            21.0600000    0.274574823617
     26   S      41             7.4950000    0.448294318924
     26   S      42             2.7970000    0.284902610715
     26   S      43             0.5215000    0.015194859206

     27   S      44          6665.0000000   -0.000293269653
     27   S      45          1000.0000000   -0.002318035474
     27   S      46           228.0000000   -0.011499786039
     27   S      47            64.7100000   -0.046826727010
     27   S      48            21.0600000   -0.128466168750
     27   S      49             7.4950000   -0.301266272463
     27   S      50             2.7970000   -0.255630702330
     27   S      51             0.5215000    1.093793361012

     28   S      52             0.1596000    1.000000000000

     29   P      53             9.4390000    0.056979251590
     29   P      54             2.0020000    0.313207211501
     29   P      55             0.5456000    0.760376741738

     30   P      56             0.1517000    1.000000000000

     31   D      57             0.5500000    1.000000000000

     32   S      58             0.0469000    1.000000000000

     33   P      59             0.0404100    1.000000000000

     34   D      60             0.1510000    1.000000000000

 N         

     35   S      61          9046.0000000    0.000699617413
     35   S      62          1357.0000000    0.005386054630
     35   S      63           309.3000000    0.027391021189
     35   S      64            87.7300000    0.103150591982
     35   S      65            28.5600000    0.278570663317
     35   S      66            10.2100000    0.448294849454
     35   S      67             3.8380000    0.278085928395
     35   S      68             0.7466000    0.015431561233

     36   S      69          9046.0000000   -0.000304990096
     36   S      70          1357.0000000   -0.002408026379
     36   S      71           309.3000000   -0.011944448725
     36   S      72            87.7300000   -0.048925992909
     36   S      73            28.5600000   -0.134472724725
     36   S      74            10.2100000   -0.315112577700
     36   S      75             3.8380000   -0.242857832550
     36   S      76             0.7466000    1.094382206854

     37   S      77             0.2248000    1.000000000000

     38   P      78            13.5500000    0.058905676772
     38   P      79             2.9170000    0.320461106714
     38   P      80             0.7973000    0.753042061792

     39   P      81             0.2185000    1.000000000000

     40   D      82             0.8170000    1.000000000000

     41   S      83             0.0612400    1.000000000000

     42   P      84             0.0561100    1.000000000000

     43   D      85             0.2300000    1.000000000000

 N         

     44   S      86          9046.0000000    0.000699617413
     44   S      87          1357.0000000    0.005386054630
     44   S      88           309.3000000    0.027391021189
     44   S      89            87.7300000    0.103150591982
     44   S      90            28.5600000    0.278570663317
     44   S      91            10.2100000    0.448294849454
     44   S      92             3.8380000    0.278085928395
     44   S      93             0.7466000    0.015431561233

     45   S      94          9046.0000000   -0.000304990096
     45   S      95          1357.0000000   -0.002408026379
     45   S      96           309.3000000   -0.011944448725
     45   S      97            87.7300000   -0.048925992909
     45   S      98            28.5600000   -0.134472724725
     45   S      99            10.2100000   -0.315112577700
     45   S     100             3.8380000   -0.242857832550
     45   S     101             0.7466000    1.094382206854

     46   S     102             0.2248000    1.000000000000

     47   P     103            13.5500000    0.058905676772
     47   P     104             2.9170000    0.320461106714
     47   P     105             0.7973000    0.753042061792

     48   P     106             0.2185000    1.000000000000

     49   D     107             0.8170000    1.000000000000

     50   S     108             0.0612400    1.000000000000

     51   P     109             0.0561100    1.000000000000

     52   D     110             0.2300000    1.000000000000

 TOTAL NUMBER OF BASIS SET SHELLS             =   52
 NUMBER OF CARTESIAN GAUSSIAN BASIS FUNCTIONS =  120
 NOTE: THIS RUN WILL RESTRICT THE MO VARIATION SPACE TO SPHERICAL HARMONICS.
 THE NUMBER OF ORBITALS KEPT IN THE VARIATIONAL SPACE WILL BE PRINTED LATER.
 NUMBER OF ELECTRONS                          =   24
 CHARGE OF MOLECULE                           =    1
 SPIN MULTIPLICITY                            =    1
 NUMBER OF OCCUPIED ORBITALS (ALPHA)          =   12
 NUMBER OF OCCUPIED ORBITALS (BETA )          =   12
 TOTAL NUMBER OF ATOMS                        =    8
 THE NUCLEAR REPULSION ENERGY IS       80.0312601802

     $CONTRL OPTIONS
     ---------------
 SCFTYP=RHF          RUNTYP=ENERGY       EXETYP=RUN     
 MPLEVL=       0     CITYP =NONE         CCTYP =NONE         VBTYP =NONE    
 MULT  =       1     ICHARG=       1     NZVAR =       0     COORD =UNIQUE  
 PP    =NONE         RELWFN=NONE         LOCAL =NONE         NUMGRD=       F
 ISPHER=       1     NOSYM =       0     MAXIT =     100     UNITS =ANGS    
 PLTORB=       F     MOLPLT=       F     AIMPAC=       F     FRIEND=        
 NPRINT=       7     IREST =       0     GEOM  =INPUT   
 NORMF =       0     NORMP =       0     ITOL  =      20     ICUT  =       9
 INTTYP=BEST         GRDTYP=BEST         QMTTOL= 1.0E-06

     $SYSTEM OPTIONS
     ---------------
  REPLICATED MEMORY=     1000000 WORDS (ON EVERY NODE).
 DISTRIBUTED MEMDDI=           0 MILLION WORDS IN AGGREGATE,
 MEMDDI DISTRIBUTED OVER   1 PROCESSORS IS           0 WORDS/PROCESSOR.
 TOTAL MEMORY REQUESTED ON EACH PROCESSOR=     1000000 WORDS.
 TIMLIM=      525600.00 MINUTES, OR   365.00 DAYS.
 PARALL= F  BALTYP=  NXTVAL  KDIAG=    0  COREFL= F

          ----------------
          PROPERTIES INPUT
          ----------------

     MOMENTS            FIELD           POTENTIAL          DENSITY
 IEMOM =       1   IEFLD =       0   IEPOT =       0   IEDEN =       0
 WHERE =COMASS     WHERE =NUCLEI     WHERE =NUCLEI     WHERE =NUCLEI  
 OUTPUT=BOTH       OUTPUT=BOTH       OUTPUT=BOTH       OUTPUT=BOTH    
 IEMINT=       0   IEFINT=       0                     IEDINT=       0
                                                       MORB  =       0
          EXTRAPOLATION IN EFFECT
          SOSCF IN EFFECT
 ORBITAL PRINTING OPTION: NPREO=   1 120   2   1

     -------------------------------
     INTEGRAL TRANSFORMATION OPTIONS
     -------------------------------
     NWORD  =       0     CUTOFF = 1.0E-09
     MPTRAN =       0     DIRTRF =       F
     AOINTS =DUP     

          ----------------------
          INTEGRAL INPUT OPTIONS
          ----------------------
 NOPK  =       1 NORDER=       0 SCHWRZ=       T

     ------------------------------------------
     THE POINT GROUP IS C1 , NAXIS= 0, ORDER= 1
     ------------------------------------------

 -- VARIATIONAL SPACE WILL BE RESTRICTED TO PURE SPHERICAL HARMONICS ONLY --
 AFTER EXCLUDING CONTAMINANT COMBINATIONS FROM THE CARTESIAN GAUSSIAN BASIS
 SET, THE NUMBER OF SPHERICAL HARMONICS KEPT IN THE VARIATION SPACE IS  114

     DIMENSIONS OF THE SYMMETRY SUBSPACES ARE
 A   =  114

 ..... DONE SETTING UP THE RUN .....
 STEP CPU TIME =     0.02 TOTAL CPU TIME =        0.0 (    0.0 MIN)
 TOTAL WALL CLOCK TIME=        0.0 SECONDS, CPU UTILIZATION IS 100.00%

          ********************
          1 ELECTRON INTEGRALS
          ********************
 ...... END OF ONE-ELECTRON INTEGRALS ......
 STEP CPU TIME =     0.00 TOTAL CPU TIME =        0.0 (    0.0 MIN)
 TOTAL WALL CLOCK TIME=        0.0 SECONDS, CPU UTILIZATION IS 100.00%

          -------------
          GUESS OPTIONS
          -------------
          GUESS =HUCKEL            NORB  =       0          NORDER=       0
          MIX   =       F          PRTMO =       F          PUNMO =       F
          TOLZ  = 1.0E-08          TOLE  = 1.0E-05
          SYMDEN=       F          PURIFY=       F

 INITIAL GUESS ORBITALS GENERATED BY HUCKEL   ROUTINE.
 HUCKEL GUESS REQUIRES    111248 WORDS.

 STATISTICS FOR GENERATION OF SYMMETRY ORBITAL -Q- MATRIX
 NUMBER OF CARTESIAN ATOMIC ORBITALS=        120
 NUMBER OF SPHERICAL CONTAMINANTS DROPPED=     6
 NUMBER OF LINEARLY DEPENDENT MOS DROPPED=     0
 TOTAL NUMBER OF MOS IN VARIATION SPACE=     114

 SYMMETRIES FOR INITIAL GUESS ORBITALS FOLLOW.   BOTH SET(S).
    12 ORBITALS ARE OCCUPIED (    3 CORE ORBITALS).
     4=A        5=A        6=A        7=A        8=A        9=A       10=A   
    11=A       12=A       13=A       14=A       15=A       16=A       17=A   
    18=A       19=A       20=A       21=A       22=A   
 ...... END OF INITIAL ORBITAL SELECTION ......
 STEP CPU TIME =     0.05 TOTAL CPU TIME =        0.1 (    0.0 MIN)
 TOTAL WALL CLOCK TIME=        0.0 SECONDS, CPU UTILIZATION IS 100.00%

                    ----------------------
                    AO INTEGRAL TECHNOLOGY
                    ----------------------
     S,P,L SHELL ROTATED AXIS INTEGRALS, REPROGRAMMED BY
        KAZUYA ISHIMURA (IMS) AND JOSE SIERRA (SYNSTAR).
     S,P,D,L SHELL ROTATED AXIS INTEGRALS PROGRAMMED BY
        KAZUYA ISHIMURA (INSTITUTE FOR MOLECULAR SCIENCE).
     S,P,D,F,G SHELL TO TOTAL QUARTET ANGULAR MOMENTUM SUM 5,
        ERIC PROGRAM BY GRAHAM FLETCHER (ELORET AND NASA ADVANCED
        SUPERCOMPUTING DIVISION, AMES RESEARCH CENTER).
     S,P,D,F,G,L SHELL GENERAL RYS QUADRATURE PROGRAMMED BY
        MICHEL DUPUIS (PACIFIC NORTHWEST NATIONAL LABORATORY).

          --------------------
          2 ELECTRON INTEGRALS
          --------------------

 THE -PK- OPTION IS OFF, THE INTEGRALS ARE NOT IN SUPERMATRIX FORM.
 STORING   15000 INTEGRALS/RECORD ON DISK, USING 12 BYTES/INTEGRAL.
 TWO ELECTRON INTEGRAL EVALUATION REQUIRES   91774 WORDS OF MEMORY.
 SCHWARZ INEQUALITY OVERHEAD:      7260 INTEGRALS, T=        0.00
 II,JST,KST,LST =  1  1  1  1 NREC =         1 INTLOC =    1
 II,JST,KST,LST =  2  1  1  1 NREC =         1 INTLOC =    2
 II,JST,KST,LST =  3  1  1  1 NREC =         1 INTLOC =    7
 II,JST,KST,LST =  4  1  1  1 NREC =         1 INTLOC =   34
 II,JST,KST,LST =  5  1  1  1 NREC =         1 INTLOC =   67
 II,JST,KST,LST =  6  1  1  1 NREC =         1 INTLOC =  214
 II,JST,KST,LST =  7  1  1  1 NREC =         1 INTLOC =  529
 II,JST,KST,LST =  8  1  1  1 NREC =         1 INTLOC =  960
 II,JST,KST,LST =  9  1  1  1 NREC =         1 INTLOC = 2737
 II,JST,KST,LST = 10  1  1  1 NREC =         1 INTLOC = 3742
 II,JST,KST,LST = 11  1  1  1 NREC =         1 INTLOC = 7469
 II,JST,KST,LST = 12  1  1  1 NREC =         1 INTLOC = 9408
 II,JST,KST,LST = 13  1  1  1 NREC =         1 INTLOC =11704
 II,JST,KST,LST = 14  1  1  1 NREC =         2 INTLOC = 4364
 II,JST,KST,LST = 15  1  1  1 NREC =         2 INTLOC = 8112
 II,JST,KST,LST = 16  1  1  1 NREC =         3 INTLOC = 5311
 II,JST,KST,LST = 17  1  1  1 NREC =         3 INTLOC =11801
 II,JST,KST,LST = 18  1  1  1 NREC =         4 INTLOC = 4191
 II,JST,KST,LST = 19  1  1  1 NREC =         5 INTLOC =12175
 II,JST,KST,LST = 20  1  1  1 NREC =         6 INTLOC = 7892
 II,JST,KST,LST = 21  1  1  1 NREC =         8 INTLOC =11887
 II,JST,KST,LST = 22  1  1  1 NREC =         9 INTLOC =11024
 II,JST,KST,LST = 23  1  1  1 NREC =        10 INTLOC =12230
 II,JST,KST,LST = 24  1  1  1 NREC =        13 INTLOC =11251
 II,JST,KST,LST = 25  1  1  1 NREC =        15 INTLOC = 2638
 II,JST,KST,LST = 26  1  1  1 NREC =        19 INTLOC = 7601
 II,JST,KST,LST = 27  1  1  1 NREC =        21 INTLOC = 5593
 II,JST,KST,LST = 28  1  1  1 NREC =        23 INTLOC = 6046
 II,JST,KST,LST = 29  1  1  1 NREC =        25 INTLOC = 8798
 II,JST,KST,LST = 30  1  1  1 NREC =        32 INTLOC = 1557
 II,JST,KST,LST = 31  1  1  1 NREC =        39 INTLOC =12135
 II,JST,KST,LST = 32  1  1  1 NREC =        59 INTLOC = 2961
 II,JST,KST,LST = 33  1  1  1 NREC =        63 INTLOC = 6267
 II,JST,KST,LST = 34  1  1  1 NREC =        75 INTLOC =13648
 II,JST,KST,LST = 35  1  1  1 NREC =       106 INTLOC = 2530
 II,JST,KST,LST = 36  1  1  1 NREC =       112 INTLOC =11187
 II,JST,KST,LST = 37  1  1  1 NREC =       119 INTLOC =12515
 II,JST,KST,LST = 38  1  1  1 NREC =       127 INTLOC = 4441
 II,JST,KST,LST = 39  1  1  1 NREC =       149 INTLOC = 2948
 II,JST,KST,LST = 40  1  1  1 NREC =       173 INTLOC =14741
 II,JST,KST,LST = 41  1  1  1 NREC =       232 INTLOC =  586
 II,JST,KST,LST = 42  1  1  1 NREC =       244 INTLOC =   13
 II,JST,KST,LST = 43  1  1  1 NREC =       279 INTLOC = 4041
 II,JST,KST,LST = 44  1  1  1 NREC =       360 INTLOC =11289
 II,JST,KST,LST = 45  1  1  1 NREC =       376 INTLOC = 9948
 II,JST,KST,LST = 46  1  1  1 NREC =       393 INTLOC = 8397
 II,JST,KST,LST = 47  1  1  1 NREC =       411 INTLOC = 1834
 II,JST,KST,LST = 48  1  1  1 NREC =       462 INTLOC = 1068
 II,JST,KST,LST = 49  1  1  1 NREC =       517 INTLOC =14428
 II,JST,KST,LST = 50  1  1  1 NREC =       643 INTLOC = 6519
 II,JST,KST,LST = 51  1  1  1 NREC =       668 INTLOC = 6022
 II,JST,KST,LST = 52  1  1  1 NREC =       741 INTLOC = 2913
 SCHWARZ INEQUALITY TEST SKIPPED      1228 INTEGRAL BLOCKS.
 TOTAL NUMBER OF NONZERO TWO-ELECTRON INTEGRALS =            13540510
        903 INTEGRAL RECORDS WERE STORED ON DISK FILE  8.
  ...... END OF TWO-ELECTRON INTEGRALS .....
 STEP CPU TIME =     2.45 TOTAL CPU TIME =        2.5 (    0.0 MIN)
 TOTAL WALL CLOCK TIME=        4.0 SECONDS, CPU UTILIZATION IS  63.00%

          --------------------------
                 RHF SCF CALCULATION
          --------------------------

     NUCLEAR ENERGY =        80.0312601802
     MAXIT =  100     NPUNCH=    2
     EXTRAP=T  DAMP=F  SHIFT=F  RSTRCT=F  DIIS=F  DEM=F  SOSCF=T
     DENSITY MATRIX CONV=  1.00E-05
     SOSCF WILL OPTIMIZE    1224 ORBITAL ROTATIONS, SOGTOL=   0.250
     MEMORY REQUIRED FOR RHF STEP=    137376 WORDS.

 ITER EX DEM     TOTAL ENERGY        E CHANGE  DENSITY CHANGE     ORB. GRAD
   1  0  0     -148.9393419088  -148.9393419088   0.306315759   0.000000000
          ---------------START SECOND ORDER SCF---------------
   2  1  0     -149.4459631899    -0.5066212811   0.131642146   0.073580418
   3  2  0     -149.4862222083    -0.0402590185   0.026449449   0.016349899
   4  3  0     -149.4932846947    -0.0070624863   0.009016805   0.005192134
   5  4  0     -149.4937856064    -0.0005009118   0.003104974   0.001847429
   6  5  0     -149.4938296791    -0.0000440726   0.000705656   0.000500519
   7  6  0     -149.4938340192    -0.0000043401   0.000200693   0.000080688
   8  7  0     -149.4938342033    -0.0000001841   0.000029036   0.000009398
   9  8  0     -149.4938342077    -0.0000000045   0.000007705   0.000002871
  10  9  0     -149.4938342081    -0.0000000003   0.000001728   0.000001187

          -----------------
          DENSITY CONVERGED
          -----------------
     TIME TO FORM FOCK OPERATORS=       2.4 SECONDS (       0.2 SEC/ITER)
     TIME TO SOLVE SCF EQUATIONS=       0.0 SECONDS (       0.0 SEC/ITER)

 FINAL RHF ENERGY IS     -149.4938342081 AFTER  10 ITERATIONS

          ------------
          EIGENVECTORS
          ------------

                      1          2          3          4          5
                  -15.8383   -15.8382   -11.6010    -1.5453    -1.4352
                     A          A          A          A          A   
    1  H  1  S    0.000000  -0.000412   0.000483   0.063766   0.000000
    2  H  1  S    0.000000   0.005339   0.014772  -0.005599   0.000000
    3  H  1  X    0.000000   0.000000   0.000000   0.000000   0.000000
    4  H  1  Y   -0.000083   0.000000   0.000000   0.000000  -0.003221
    5  H  1  Z    0.000000   0.000324   0.000212  -0.013783   0.000000
    6  H  1  S    0.000000   0.000212   0.002660   0.001385   0.000000
    7  H  1  X    0.000000   0.000000   0.000000   0.000000   0.000000
    8  H  1  Y    0.000844   0.000000   0.000000   0.000000   0.031524
    9  H  1  Z    0.000000  -0.001370  -0.004353  -0.001278   0.000000
   10  H  2  S    0.000151   0.000116  -0.000058   0.096831  -0.122580
   11  H  2  S    0.001797   0.001546  -0.001393   0.051666  -0.039860
   12  H  2  X    0.000000   0.000000   0.000000   0.000000   0.000000
   13  H  2  Y   -0.000020   0.000041  -0.000035  -0.003250   0.004528
   14  H  2  Z   -0.000183  -0.000262   0.000263   0.018245  -0.021100
   15  H  2  S   -0.000213  -0.000144  -0.000415  -0.003282  -0.001769
   16  H  2  X    0.000000   0.000000   0.000000   0.000000   0.000000
   17  H  2  Y   -0.000162   0.000097   0.000340  -0.006388   0.005148
   18  H  2  Z    0.000680   0.000381  -0.000647   0.015531  -0.011410
   19  H  3  S   -0.000151   0.000116  -0.000058   0.096831   0.122580
   20  H  3  S   -0.001797   0.001546  -0.001393   0.051666   0.039860
   21  H  3  X    0.000000   0.000000   0.000000   0.000000   0.000000
   22  H  3  Y   -0.000020  -0.000041   0.000035   0.003250   0.004528
   23  H  3  Z    0.000183  -0.000262   0.000263   0.018245   0.021100
   24  H  3  S    0.000213  -0.000144  -0.000415  -0.003282   0.001769
   25  H  3  X    0.000000   0.000000   0.000000   0.000000   0.000000
   26  H  3  Y   -0.000162  -0.000097  -0.000340   0.006388   0.005148
   27  H  3  Z   -0.000680   0.000382  -0.000647   0.015531   0.011410
   28  H  4  S    0.000172   0.000052  -0.000132   0.089440  -0.138064
   29  H  4  S    0.003458  -0.000326  -0.000363   0.006272  -0.014017
   30  H  4  X    0.000000   0.000000   0.000000   0.000000   0.000000
   31  H  4  Y    0.000138   0.000177  -0.000193  -0.016831   0.020386
   32  H  4  Z    0.000146   0.000137  -0.000085  -0.006852   0.012265
   33  H  4  S   -0.000921   0.000067  -0.000153  -0.002651   0.006632
   34  H  4  X    0.000000   0.000000   0.000000   0.000000   0.000000
   35  H  4  Y   -0.001067   0.000295   0.000299  -0.000707  -0.000090
   36  H  4  Z   -0.000344  -0.000515  -0.000276   0.002817   0.004138
   37  H  5  S   -0.000172   0.000052  -0.000132   0.089440   0.138064
   38  H  5  S   -0.003458  -0.000325  -0.000363   0.006272   0.014017
   39  H  5  X    0.000000   0.000000   0.000000   0.000000   0.000000
   40  H  5  Y    0.000138  -0.000177   0.000193   0.016831   0.020386
   41  H  5  Z   -0.000146   0.000137  -0.000085  -0.006852  -0.012265
   42  H  5  S    0.000921   0.000066  -0.000153  -0.002651  -0.006632
   43  H  5  X    0.000000   0.000000   0.000000   0.000000   0.000000
   44  H  5  Y   -0.001067  -0.000295  -0.000299   0.000707  -0.000090
   45  H  5  Z    0.000344  -0.000515  -0.000276   0.002817  -0.004138
   46  C  6  S    0.000000   0.000359   1.003408  -0.020190   0.000000
   47  C  6  S    0.000000   0.000482   0.006567   0.256253   0.000000
   48  C  6  S    0.000001   0.015734  -0.005744  -0.004864   0.000000
   49  C  6  X    0.000000   0.000000   0.000000   0.000000   0.000000
   50  C  6  Y    0.000342   0.000000   0.000000   0.000000  -0.222015
   51  C  6  Z    0.000000  -0.000215  -0.001082  -0.090044   0.000000
   52  C  6  X    0.000000   0.000000   0.000000   0.000000   0.000000
   53  C  6  Y    0.010548  -0.000001   0.000000   0.000000   0.104179
   54  C  6  Z    0.000000  -0.008051  -0.009903   0.059322   0.000000
   55  C  6 XX    0.000000  -0.000035  -0.001166  -0.020193   0.000000
   56  C  6 YY    0.000000  -0.000271   0.000993   0.029165   0.000000
   57  C  6 ZZ    0.000000   0.000306   0.000173  -0.008971   0.000000
   58  C  6 XY    0.000000   0.000000   0.000000   0.000000   0.000000
   59  C  6 XZ    0.000000   0.000000   0.000000   0.000000   0.000000
   60  C  6 YZ    0.000364   0.000000   0.000000   0.000000   0.033576
   61  C  6  S    0.000000   0.006434  -0.002542   0.086630   0.000000
   62  C  6  X    0.000000   0.000000   0.000000   0.000000   0.000000
   63  C  6  Y    0.004481   0.000000   0.000000   0.000000  -0.018737
   64  C  6  Z    0.000000  -0.001872  -0.002811  -0.011472   0.000000
   65  C  6 XX    0.000000  -0.002208   0.000675   0.006269   0.000000
   66  C  6 YY    0.000000   0.003715   0.000032   0.010080   0.000000
   67  C  6 ZZ    0.000000  -0.001506  -0.000707  -0.016349   0.000000
   68  C  6 XY    0.000000   0.000000   0.000000   0.000000   0.000000
   69  C  6 XZ    0.000000   0.000000   0.000000   0.000000   0.000000
   70  C  6 YZ   -0.004367   0.000000   0.000000   0.000000  -0.098456
   71  N  7  S    0.709131   0.709043   0.000079  -0.012834   0.014221
   72  N  7  S    0.003634   0.003594   0.000770   0.255128  -0.294015
   73  N  7  S   -0.015285  -0.014357  -0.003900   0.213509  -0.332021
   74  N  7  X    0.000000   0.000000   0.000000   0.000000   0.000000
   75  N  7  Y   -0.000390  -0.000315  -0.000339  -0.067013   0.012660
   76  N  7  Z    0.000154   0.000161   0.000134   0.025447  -0.023022
   77  N  7  X    0.000000   0.000000   0.000000   0.000000   0.000000
   78  N  7  Y    0.002779   0.004399   0.004007  -0.081789   0.066337
   79  N  7  Z   -0.001391  -0.001991  -0.001377   0.025590  -0.028882
   80  N  7 XX   -0.000174  -0.000223   0.000236  -0.007433   0.007930
   81  N  7 YY    0.000156   0.000033  -0.000024   0.009896  -0.003673
   82  N  7 ZZ    0.000018   0.000189  -0.000211  -0.002463  -0.004257
   83  N  7 XY    0.000000   0.000000   0.000000   0.000000   0.000000
   84  N  7 XZ    0.000000   0.000000   0.000000   0.000000   0.000000
   85  N  7 YZ    0.000001  -0.000038   0.000022  -0.006355   0.004254
   86  N  7  S   -0.011685  -0.005597  -0.001286  -0.061254   0.019100
   87  N  7  X    0.000000   0.000000   0.000000   0.000000   0.000000
   88  N  7  Y    0.001981   0.000722   0.000556   0.014864  -0.001081
   89  N  7  Z   -0.001524   0.000281   0.000238  -0.004812  -0.000369
   90  N  7 XX    0.000295   0.000835   0.000618   0.007214  -0.021800
   91  N  7 YY   -0.000396  -0.000831  -0.001448   0.016366   0.004740
   92  N  7 ZZ    0.000101  -0.000004   0.000830  -0.023579   0.017060
   93  N  7 XY    0.000000   0.000000   0.000000   0.000000   0.000000
   94  N  7 XZ    0.000000   0.000000   0.000000   0.000000   0.000000
   95  N  7 YZ    0.000245   0.000885   0.001230  -0.008936   0.015154
   96  N  8  S   -0.709049   0.709125   0.000079  -0.012834  -0.014221
   97  N  8  S   -0.003634   0.003594   0.000770   0.255128   0.294015
   98  N  8  S    0.015284  -0.014359  -0.003900   0.213509   0.332021
   99  N  8  X    0.000000   0.000000   0.000000   0.000000   0.000000
  100  N  8  Y   -0.000390   0.000315   0.000339   0.067013   0.012660
  101  N  8  Z   -0.000154   0.000161   0.000134   0.025447   0.023022
  102  N  8  X    0.000000   0.000000   0.000000   0.000000   0.000000
  103  N  8  Y    0.002778  -0.004399  -0.004007   0.081789   0.066337
  104  N  8  Z    0.001391  -0.001991  -0.001377   0.025590   0.028882
  105  N  8 XX    0.000174  -0.000223   0.000236  -0.007433  -0.007930
  106  N  8 YY   -0.000156   0.000033  -0.000024   0.009896   0.003673
  107  N  8 ZZ   -0.000018   0.000189  -0.000211  -0.002463   0.004257
  108  N  8 XY    0.000000   0.000000   0.000000   0.000000   0.000000
  109  N  8 XZ    0.000000   0.000000   0.000000   0.000000   0.000000
  110  N  8 YZ    0.000001   0.000038  -0.000022   0.006355   0.004254
  111  N  8  S    0.011684  -0.005598  -0.001286  -0.061254  -0.019100
  112  N  8  X    0.000000   0.000000   0.000000   0.000000   0.000000
  113  N  8  Y    0.001981  -0.000722  -0.000556  -0.014864  -0.001081
  114  N  8  Z    0.001524   0.000281   0.000238  -0.004812   0.000369
  115  N  8 XX   -0.000294   0.000835   0.000618   0.007213   0.021800
  116  N  8 YY    0.000396  -0.000831  -0.001448   0.016366  -0.004740
  117  N  8 ZZ   -0.000101  -0.000004   0.000830  -0.023579  -0.017060
  118  N  8 XY    0.000000   0.000000   0.000000   0.000000   0.000000
  119  N  8 XZ    0.000000   0.000000   0.000000   0.000000   0.000000
  120  N  8 YZ    0.000245  -0.000885  -0.001230   0.008936   0.015154

                      6          7          8          9         10
                   -1.1214    -1.0143    -0.9804    -0.8984    -0.8323
                     A          A          A          A          A   
    1  H  1  S    0.200089   0.182723   0.000000   0.000000   0.340656
    2  H  1  S    0.026721   0.168529   0.000000   0.000000   0.238368
    3  H  1  X    0.000000   0.000000   0.000000   0.000000   0.000000
    4  H  1  Y    0.000000   0.000000   0.006014  -0.007029   0.000000
    5  H  1  Z   -0.021030  -0.015510   0.000000   0.000000  -0.023011
    6  H  1  S    0.010692   0.021593   0.000000   0.000000   0.024521
    7  H  1  X    0.000000   0.000000   0.000000   0.000000   0.000000
    8  H  1  Y    0.000000   0.000000   0.023675   0.024887   0.000000
    9  H  1  Z    0.017538  -0.052096   0.000000   0.000000  -0.049679
   10  H  2  S   -0.181728  -0.106652  -0.252241  -0.143728   0.214991
   11  H  2  S   -0.001128  -0.056875  -0.110773  -0.096394   0.154988
   12  H  2  X    0.000000   0.000000   0.000000   0.000000   0.000000
   13  H  2  Y   -0.001354   0.007034  -0.002147   0.007548  -0.003228
   14  H  2  Z   -0.023705  -0.008719  -0.024796  -0.011806   0.015384
   15  H  2  S   -0.001688  -0.001811   0.010135  -0.004060  -0.003282
   16  H  2  X    0.000000   0.000000   0.000000   0.000000   0.000000
   17  H  2  Y    0.004066  -0.011821   0.017364  -0.018792  -0.014611
   18  H  2  Z    0.001848  -0.014538  -0.027093  -0.029185   0.045136
   19  H  3  S   -0.181728  -0.106652   0.252241   0.143728   0.214991
   20  H  3  S   -0.001128  -0.056875   0.110773   0.096394   0.154988
   21  H  3  X    0.000000   0.000000   0.000000   0.000000   0.000000
   22  H  3  Y    0.001354  -0.007034  -0.002147   0.007548   0.003228
   23  H  3  Z   -0.023705  -0.008719   0.024796   0.011806   0.015384
   24  H  3  S   -0.001688  -0.001811  -0.010135   0.004060  -0.003282
   25  H  3  X    0.000000   0.000000   0.000000   0.000000   0.000000
   26  H  3  Y   -0.004066   0.011821   0.017364  -0.018792   0.014611
   27  H  3  Z    0.001848  -0.014538   0.027093   0.029185   0.045136
   28  H  4  S   -0.127230   0.235190  -0.018376   0.293660  -0.117498
   29  H  4  S   -0.014997   0.088786   0.003189   0.158417  -0.105961
   30  H  4  X    0.000000   0.000000   0.000000   0.000000   0.000000
   31  H  4  Y    0.012046  -0.019426  -0.001636  -0.020693   0.012728
   32  H  4  Z    0.012984  -0.012839   0.006567  -0.013963  -0.001746
   33  H  4  S    0.002491  -0.007034   0.003161  -0.001755  -0.004828
   34  H  4  X    0.000000   0.000000   0.000000   0.000000   0.000000
   35  H  4  Y    0.010297  -0.020079   0.014867  -0.036711   0.023682
   36  H  4  Z   -0.003525  -0.016826  -0.019335  -0.020781   0.019026
   37  H  5  S   -0.127230   0.235190   0.018376  -0.293660  -0.117498
   38  H  5  S   -0.014997   0.088786  -0.003189  -0.158417  -0.105961
   39  H  5  X    0.000000   0.000000   0.000000   0.000000   0.000000
   40  H  5  Y   -0.012046   0.019426  -0.001636  -0.020693  -0.012728
   41  H  5  Z    0.012984  -0.012839  -0.006567   0.013963  -0.001746
   42  H  5  S    0.002491  -0.007034  -0.003161   0.001755  -0.004828
   43  H  5  X    0.000000   0.000000   0.000000   0.000000   0.000000
   44  H  5  Y   -0.010297   0.020079   0.014867  -0.036711  -0.023682
   45  H  5  Z   -0.003525  -0.016826   0.019335   0.020781   0.019026
   46  C  6  S    0.001971  -0.005057   0.000000   0.000000  -0.005051
   47  C  6  S    0.313200  -0.016848   0.000000   0.000000   0.039470
   48  C  6  S    0.219222  -0.134331   0.000000   0.000000  -0.059019
   49  C  6  X    0.000000   0.000000   0.000000   0.000000   0.000000
   50  C  6  Y    0.000000   0.000000   0.344505  -0.194603   0.000000
   51  C  6  Z    0.067769   0.284790   0.000000   0.000000   0.361818
   52  C  6  X    0.000000   0.000000   0.000000   0.000000   0.000000
   53  C  6  Y    0.000000   0.000000   0.108692  -0.133485   0.000000
   54  C  6  Z    0.018557  -0.045091   0.000000   0.000000   0.111749
   55  C  6 XX   -0.007218   0.003159   0.000000   0.000000   0.005824
   56  C  6 YY    0.002434   0.005674   0.000000   0.000000  -0.048625
   57  C  6 ZZ    0.004784  -0.008833   0.000000   0.000000   0.042801
   58  C  6 XY    0.000000   0.000000   0.000000   0.000000   0.000000
   59  C  6 XZ    0.000000   0.000000   0.000000   0.000000   0.000000
   60  C  6 YZ    0.000000   0.000000  -0.020210   0.041136   0.000000
   61  C  6  S    0.028308  -0.006993   0.000000   0.000000  -0.010438
   62  C  6  X    0.000000   0.000000   0.000000   0.000000   0.000000
   63  C  6  Y    0.000000   0.000000  -0.003266  -0.000550   0.000000
   64  C  6  Z   -0.022746  -0.017665   0.000000   0.000000  -0.019570
   65  C  6 XX    0.014373   0.002916   0.000000   0.000000   0.004515
   66  C  6 YY    0.025754  -0.017226   0.000000   0.000000   0.036792
   67  C  6 ZZ   -0.040126   0.014310   0.000000   0.000000  -0.041307
   68  C  6 XY    0.000000   0.000000   0.000000   0.000000   0.000000
   69  C  6 XZ    0.000000   0.000000   0.000000   0.000000   0.000000
   70  C  6 YZ    0.000000   0.000000  -0.058783  -0.021309   0.000000
   71  N  7  S    0.001402  -0.002238   0.001399   0.001515  -0.000709
   72  N  7  S   -0.128793   0.017904  -0.022979  -0.014604  -0.036504
   73  N  7  S   -0.115047   0.017196  -0.049092  -0.013002  -0.050772
   74  N  7  X    0.000000   0.000000   0.000000   0.000000   0.000000
   75  N  7  Y   -0.190288   0.235725  -0.186423   0.300027   0.042504
   76  N  7  Z    0.140730   0.176150   0.283064   0.184984  -0.248493
   77  N  7  X    0.000000   0.000000   0.000000   0.000000   0.000000
   78  N  7  Y   -0.070812   0.079546  -0.047216   0.115240   0.017087
   79  N  7  Z    0.040994   0.075649   0.103394   0.072193  -0.084587
   80  N  7 XX    0.000021   0.000096  -0.000083   0.000112  -0.000556
   81  N  7 YY    0.006903  -0.002029   0.009265   0.004897  -0.017706
   82  N  7 ZZ   -0.006924   0.001933  -0.009182  -0.005010   0.018262
   83  N  7 XY    0.000000   0.000000   0.000000   0.000000   0.000000
   84  N  7 XZ    0.000000   0.000000   0.000000   0.000000   0.000000
   85  N  7 YZ   -0.012566   0.007893  -0.011134   0.016141  -0.008225
   86  N  7  S   -0.050610  -0.009819   0.039460  -0.017723  -0.015001
   87  N  7  X    0.000000   0.000000   0.000000   0.000000   0.000000
   88  N  7  Y   -0.001397   0.013596  -0.031507   0.015482   0.014521
   89  N  7  Z    0.005863  -0.000934   0.010270  -0.010410  -0.002603
   90  N  7 XX   -0.014068  -0.000149  -0.007910   0.005217  -0.005546
   91  N  7 YY   -0.003858  -0.026046  -0.038051  -0.029768   0.020898
   92  N  7 ZZ    0.017927   0.026195   0.045961   0.024551  -0.015352
   93  N  7 XY    0.000000   0.000000   0.000000   0.000000   0.000000
   94  N  7 XZ    0.000000   0.000000   0.000000   0.000000   0.000000
   95  N  7 YZ    0.008082  -0.041321   0.001845  -0.045634   0.003798
   96  N  8  S    0.001402  -0.002238  -0.001399  -0.001515  -0.000709
   97  N  8  S   -0.128793   0.017904   0.022979   0.014604  -0.036504
   98  N  8  S   -0.115047   0.017196   0.049092   0.013002  -0.050772
   99  N  8  X    0.000000   0.000000   0.000000   0.000000   0.000000
  100  N  8  Y    0.190288  -0.235725  -0.186423   0.300027  -0.042504
  101  N  8  Z    0.140730   0.176150  -0.283064  -0.184984  -0.248493
  102  N  8  X    0.000000   0.000000   0.000000   0.000000   0.000000
  103  N  8  Y    0.070812  -0.079546  -0.047216   0.115240  -0.017087
  104  N  8  Z    0.040994   0.075649  -0.103394  -0.072193  -0.084587
  105  N  8 XX    0.000021   0.000096   0.000083  -0.000112  -0.000556
  106  N  8 YY    0.006903  -0.002029  -0.009265  -0.004897  -0.017706
  107  N  8 ZZ   -0.006924   0.001933   0.009182   0.005010   0.018262
  108  N  8 XY    0.000000   0.000000   0.000000   0.000000   0.000000
  109  N  8 XZ    0.000000   0.000000   0.000000   0.000000   0.000000
  110  N  8 YZ    0.012566  -0.007893  -0.011134   0.016141   0.008225
  111  N  8  S   -0.050610  -0.009819  -0.039460   0.017723  -0.015001
  112  N  8  X    0.000000   0.000000   0.000000   0.000000   0.000000
  113  N  8  Y    0.001397  -0.013596  -0.031507   0.015482  -0.014521
  114  N  8  Z    0.005863  -0.000934  -0.010270   0.010410  -0.002603
  115  N  8 XX   -0.014068  -0.000149   0.007910  -0.005217  -0.005546
  116  N  8 YY   -0.003858  -0.026046   0.038051   0.029768   0.020898
  117  N  8 ZZ    0.017927   0.026195  -0.045961  -0.024551  -0.015352
  118  N  8 XY    0.000000   0.000000   0.000000   0.000000   0.000000
  119  N  8 XZ    0.000000   0.000000   0.000000   0.000000   0.000000
  120  N  8 YZ   -0.008082   0.041321   0.001845  -0.045634  -0.003798

                     11         12         13         14         15
                   -0.8001    -0.6468    -0.1067    -0.0874    -0.0832
                     A          A          A          A          A   
    1  H  1  S    0.000000   0.000000   0.026416   0.027096   0.000000
    2  H  1  S    0.000000   0.000000  -0.127119   0.440814   0.000000
    3  H  1  X    0.010059   0.000000   0.000000   0.000000   0.000000
    4  H  1  Y    0.000000   0.000000   0.000000   0.000000  -0.004943
    5  H  1  Z    0.000000   0.000000  -0.006027   0.009013   0.000000
    6  H  1  S    0.000000   0.000000  -0.659826   1.701226   0.000000
    7  H  1  X   -0.013189   0.000000   0.000000   0.000000   0.000000
    8  H  1  Y    0.000000   0.000000   0.000000   0.000000  -0.052399
    9  H  1  Z    0.000000   0.000000   0.012744  -0.034988   0.000000
   10  H  2  S    0.000000   0.000000   0.010729  -0.012123  -0.024724
   11  H  2  S    0.000000   0.000000  -0.078820  -0.045878  -0.102879
   12  H  2  X    0.013226  -0.017944   0.000000   0.000000   0.000000
   13  H  2  Y    0.000000   0.000000   0.002159  -0.001958  -0.000018
   14  H  2  Z    0.000000   0.000000   0.008413   0.008962   0.005102
   15  H  2  S    0.000000   0.000000  -0.551211  -1.126368  -0.605292
   16  H  2  X    0.003133  -0.002642   0.000000   0.000000   0.000000
   17  H  2  Y    0.000000   0.000000  -0.000203  -0.000506  -0.050864
   18  H  2  Z    0.000000   0.000000   0.028052   0.050699   0.018957
   19  H  3  S    0.000000   0.000000   0.010729  -0.012123   0.024724
   20  H  3  S    0.000000   0.000000  -0.078820  -0.045878   0.102879
   21  H  3  X    0.013226   0.017944   0.000000   0.000000   0.000000
   22  H  3  Y    0.000000   0.000000  -0.002159   0.001958  -0.000018
   23  H  3  Z    0.000000   0.000000   0.008413   0.008962  -0.005102
   24  H  3  S    0.000000   0.000000  -0.551211  -1.126369   0.605292
   25  H  3  X    0.003133   0.002642   0.000000   0.000000   0.000000
   26  H  3  Y    0.000000   0.000000   0.000203   0.000506  -0.050864
   27  H  3  Z    0.000000   0.000000   0.028052   0.050699  -0.018957
   28  H  4  S    0.000000   0.000000  -0.029300   0.003364   0.006282
   29  H  4  S    0.000000   0.000000  -0.091783   0.049609  -0.118065
   30  H  4  X    0.014040  -0.018647   0.000000   0.000000   0.000000
   31  H  4  Y    0.000000   0.000000  -0.005451   0.003747  -0.007038
   32  H  4  Z    0.000000   0.000000  -0.006747   0.001414  -0.005530
   33  H  4  S    0.000000   0.000000  -0.386003   0.414387  -1.289106
   34  H  4  X   -0.001077  -0.008064   0.000000   0.000000   0.000000
   35  H  4  Y    0.000000   0.000000  -0.027859  -0.010791  -0.038302
   36  H  4  Z    0.000000   0.000000   0.000872   0.031988   0.001081
   37  H  5  S    0.000000   0.000000  -0.029300   0.003364  -0.006282
   38  H  5  S    0.000000   0.000000  -0.091783   0.049609   0.118065
   39  H  5  X    0.014040   0.018647   0.000000   0.000000   0.000000
   40  H  5  Y    0.000000   0.000000   0.005451  -0.003747  -0.007038
   41  H  5  Z    0.000000   0.000000  -0.006747   0.001414   0.005530
   42  H  5  S    0.000000   0.000000  -0.386003   0.414387   1.289106
   43  H  5  X   -0.001077   0.008064   0.000000   0.000000   0.000000
   44  H  5  Y    0.000000   0.000000   0.027859   0.010791  -0.038302
   45  H  5  Z    0.000000   0.000000   0.000872   0.031988  -0.001081
   46  C  6  S    0.000000   0.000000  -0.000381   0.001389   0.000000
   47  C  6  S    0.000000   0.000000   0.022002  -0.050392   0.000000
   48  C  6  S    0.000000   0.000000   0.240251  -0.249947   0.000000
   49  C  6  X    0.324579   0.000000   0.000000   0.000000   0.000000
   50  C  6  Y    0.000000   0.000000   0.000000   0.000000  -0.042180
   51  C  6  Z    0.000000   0.000000   0.077063  -0.082669   0.000000
   52  C  6  X    0.097262   0.000000   0.000000   0.000000   0.000000
   53  C  6  Y    0.000000   0.000000   0.000000   0.000000   0.066586
   54  C  6  Z    0.000000   0.000000   0.072479  -0.167227   0.000000
   55  C  6 XX    0.000000   0.000000  -0.008226  -0.002745   0.000000
   56  C  6 YY    0.000000   0.000000   0.008468  -0.010526   0.000000
   57  C  6 ZZ    0.000000   0.000000  -0.000242   0.013271   0.000000
   58  C  6 XY    0.000000  -0.063430   0.000000   0.000000   0.000000
   59  C  6 XZ   -0.025355   0.000000   0.000000   0.000000   0.000000
   60  C  6 YZ    0.000000   0.000000   0.000000   0.000000  -0.008713
   61  C  6  S    0.000000   0.000000   1.903745  -0.131225   0.000000
   62  C  6  X   -0.004819   0.000000   0.000000   0.000000   0.000000
   63  C  6  Y    0.000000   0.000000   0.000000   0.000000   0.584680
   64  C  6  Z    0.000000   0.000000   0.032205  -0.628133   0.000000
   65  C  6 XX    0.000000   0.000000  -0.014545   0.024766   0.000000
   66  C  6 YY    0.000000   0.000000  -0.002003   0.002958   0.000000
   67  C  6 ZZ    0.000000   0.000000   0.016547  -0.027724   0.000000
   68  C  6 XY    0.000000  -0.003806   0.000000   0.000000   0.000000
   69  C  6 XZ    0.031864   0.000000   0.000000   0.000000   0.000000
   70  C  6 YZ    0.000000   0.000000   0.000000   0.000000  -0.016402
   71  N  7  S    0.000000   0.000000   0.002833   0.001072   0.002392
   72  N  7  S    0.000000   0.000000   0.073443   0.019678   0.064651
   73  N  7  S    0.000000   0.000000   0.158985   0.034390   0.124349
   74  N  7  X    0.340791  -0.430542   0.000000   0.000000   0.000000
   75  N  7  Y    0.000000   0.000000   0.037982  -0.018917   0.057682
   76  N  7  Z    0.000000   0.000000  -0.029560  -0.071607   0.003599
   77  N  7  X    0.257881  -0.339453   0.000000   0.000000   0.000000
   78  N  7  Y    0.000000   0.000000   0.059498  -0.021856   0.091509
   79  N  7  Z    0.000000   0.000000  -0.037852  -0.070983  -0.010816
   80  N  7 XX    0.000000   0.000000  -0.001778   0.000380   0.000478
   81  N  7 YY    0.000000   0.000000  -0.001794   0.003013   0.000279
   82  N  7 ZZ    0.000000   0.000000   0.003572  -0.003393  -0.000756
   83  N  7 XY   -0.014919   0.005068   0.000000   0.000000   0.000000
   84  N  7 XZ    0.008234  -0.003140   0.000000   0.000000   0.000000
   85  N  7 YZ    0.000000   0.000000  -0.004866   0.004298   0.003106
   86  N  7  S    0.000000   0.000000  -0.176447  -0.177786  -0.188399
   87  N  7  X    0.020615  -0.047243   0.000000   0.000000   0.000000
   88  N  7  Y    0.000000   0.000000   0.268793   0.084776   0.469939
   89  N  7  Z    0.000000   0.000000  -0.215874  -0.120020  -0.131914
   90  N  7 XX    0.000000   0.000000   0.004660  -0.000835   0.001181
   91  N  7 YY    0.000000   0.000000  -0.007191   0.007866   0.003438
   92  N  7 ZZ    0.000000   0.000000   0.002531  -0.007031  -0.004619
   93  N  7 XY   -0.025152   0.008686   0.000000   0.000000   0.000000
   94  N  7 XZ    0.007510  -0.003837   0.000000   0.000000   0.000000
   95  N  7 YZ    0.000000   0.000000  -0.004095   0.008199  -0.002448
   96  N  8  S    0.000000   0.000000   0.002833   0.001072  -0.002392
   97  N  8  S    0.000000   0.000000   0.073443   0.019678  -0.064651
   98  N  8  S    0.000000   0.000000   0.158985   0.034390  -0.124349
   99  N  8  X    0.340791   0.430542   0.000000   0.000000   0.000000
  100  N  8  Y    0.000000   0.000000  -0.037982   0.018917   0.057682
  101  N  8  Z    0.000000   0.000000  -0.029560  -0.071607  -0.003599
  102  N  8  X    0.257881   0.339453   0.000000   0.000000   0.000000
  103  N  8  Y    0.000000   0.000000  -0.059498   0.021856   0.091509
  104  N  8  Z    0.000000   0.000000  -0.037852  -0.070983   0.010816
  105  N  8 XX    0.000000   0.000000  -0.001778   0.000380  -0.000478
  106  N  8 YY    0.000000   0.000000  -0.001794   0.003013  -0.000279
  107  N  8 ZZ    0.000000   0.000000   0.003572  -0.003393   0.000756
  108  N  8 XY    0.014919   0.005068   0.000000   0.000000   0.000000
  109  N  8 XZ    0.008234   0.003140   0.000000   0.000000   0.000000
  110  N  8 YZ    0.000000   0.000000   0.004866  -0.004298   0.003106
  111  N  8  S    0.000000   0.000000  -0.176447  -0.177785   0.188399
  112  N  8  X    0.020615   0.047243   0.000000   0.000000   0.000000
  113  N  8  Y    0.000000   0.000000  -0.268793  -0.084776   0.469939
  114  N  8  Z    0.000000   0.000000  -0.215874  -0.120020   0.131914
  115  N  8 XX    0.000000   0.000000   0.004660  -0.000835  -0.001181
  116  N  8 YY    0.000000   0.000000  -0.007191   0.007866  -0.003438
  117  N  8 ZZ    0.000000   0.000000   0.002531  -0.007031   0.004619
  118  N  8 XY    0.025152   0.008686   0.000000   0.000000   0.000000
  119  N  8 XZ    0.007510   0.003837   0.000000   0.000000   0.000000
  120  N  8 YZ    0.000000   0.000000   0.004095  -0.008199  -0.002448

                     16         17         18         19         20
                   -0.0782    -0.0479    -0.0466    -0.0437    -0.0178
                     A          A          A          A          A   
    1  H  1  S    0.000000  -0.013732   0.000000   0.000000  -0.044076
    2  H  1  S    0.000000   0.328029   0.000000   0.000000  -0.215586
    3  H  1  X    0.022247   0.000000   0.000000   0.003593   0.000000
    4  H  1  Y    0.000000   0.000000   0.002651   0.000000   0.000000
    5  H  1  Z    0.000000   0.004190   0.000000   0.000000  -0.003174
    6  H  1  S    0.000000   4.277041   0.000000   0.000000   1.767537
    7  H  1  X    0.114106   0.000000   0.000000  -0.169242   0.000000
    8  H  1  Y    0.000000   0.000000   0.080594   0.000000   0.000000
    9  H  1  Z    0.000000  -0.015945   0.000000   0.000000  -0.008708
   10  H  2  S    0.000000  -0.001475   0.002013   0.000000  -0.008124
   11  H  2  S    0.000000   0.244250  -0.287104   0.000000   0.838908
   12  H  2  X   -0.016865   0.000000   0.000000   0.001866   0.000000
   13  H  2  Y    0.000000  -0.002283  -0.005488   0.000000  -0.000913
   14  H  2  Z    0.000000   0.000416   0.003988   0.000000   0.004363
   15  H  2  S    0.000000   0.893821  -3.497116   0.000000  -2.106005
   16  H  2  X   -0.038177   0.000000   0.000000   0.079998   0.000000
   17  H  2  Y    0.000000  -0.056877  -0.015963   0.000000  -0.089791
   18  H  2  Z    0.000000   0.001583  -0.009013   0.000000   0.223137
   19  H  3  S    0.000000  -0.001475  -0.002013   0.000000  -0.008124
   20  H  3  S    0.000000   0.244250   0.287104   0.000000   0.838909
   21  H  3  X   -0.016865   0.000000   0.000000   0.001866   0.000000
   22  H  3  Y    0.000000   0.002283  -0.005488   0.000000   0.000913
   23  H  3  Z    0.000000   0.000416  -0.003988   0.000000   0.004363
   24  H  3  S    0.000000   0.893821   3.497117   0.000000  -2.106005
   25  H  3  X   -0.038177   0.000000   0.000000   0.079998   0.000000
   26  H  3  Y    0.000000   0.056877  -0.015963   0.000000   0.089791
   27  H  3  Z    0.000000   0.001583   0.009013   0.000000   0.223137
   28  H  4  S    0.000000  -0.004387   0.007136   0.000000  -0.008953
   29  H  4  S    0.000000  -0.322633   0.384065   0.000000   0.582948
   30  H  4  X   -0.015577   0.000000   0.000000   0.007393   0.000000
   31  H  4  Y    0.000000  -0.007258   0.000457   0.000000   0.003411
   32  H  4  Z    0.000000   0.002806   0.001524   0.000000  -0.005651
   33  H  4  S    0.000000  -2.668614   1.733090   0.000000  -0.163165
   34  H  4  X    0.011478   0.000000   0.000000   0.056418   0.000000
   35  H  4  Y    0.000000   0.019453  -0.048359   0.000000  -0.218629
   36  H  4  Z    0.000000   0.024909   0.025660   0.000000  -0.049907
   37  H  5  S    0.000000  -0.004387  -0.007136   0.000000  -0.008953
   38  H  5  S    0.000000  -0.322633  -0.384065   0.000000   0.582948
   39  H  5  X   -0.015577   0.000000   0.000000   0.007393   0.000000
   40  H  5  Y    0.000000   0.007258   0.000457   0.000000  -0.003411
   41  H  5  Z    0.000000   0.002806  -0.001524   0.000000  -0.005651
   42  H  5  S    0.000000  -2.668614  -1.733090   0.000000  -0.163165
   43  H  5  X    0.011478   0.000000   0.000000   0.056418   0.000000
   44  H  5  Y    0.000000  -0.019453  -0.048359   0.000000   0.218629
   45  H  5  Z    0.000000   0.024909  -0.025660   0.000000  -0.049907
   46  C  6  S    0.000000  -0.002823   0.000000   0.000000  -0.013708
   47  C  6  S    0.000000  -0.057645   0.000000   0.000000  -0.024153
   48  C  6  S    0.000000  -0.179547   0.000000   0.000000   0.780147
   49  C  6  X    0.424140   0.000000   0.000000  -0.226132   0.000000
   50  C  6  Y    0.000000   0.000000  -0.034699   0.000000   0.000000
   51  C  6  Z    0.000000  -0.017686   0.000000   0.000000   0.048358
   52  C  6  X    0.553239   0.000000   0.000000  -0.372674   0.000000
   53  C  6  Y    0.000000   0.000000   0.061526   0.000000   0.000000
   54  C  6  Z    0.000000  -0.143549   0.000000   0.000000  -0.203161
   55  C  6 XX    0.000000  -0.002768   0.000000   0.000000   0.010891
   56  C  6 YY    0.000000   0.011606   0.000000   0.000000  -0.003766
   57  C  6 ZZ    0.000000  -0.008838   0.000000   0.000000  -0.007126
   58  C  6 XY    0.000000   0.000000   0.000000   0.000000   0.000000
   59  C  6 XZ    0.026247   0.000000   0.000000   0.005068   0.000000
   60  C  6 YZ    0.000000   0.000000  -0.005778   0.000000   0.000000
   61  C  6  S    0.000000  -1.523267   0.000000   0.000000  15.057361
   62  C  6  X    1.088787   0.000000   0.000000   1.530891   0.000000
   63  C  6  Y    0.000000   0.000000   1.512645   0.000000   0.000000
   64  C  6  Z    0.000000  -1.563458   0.000000   0.000000  -5.634729
   65  C  6 XX    0.000000  -0.000110   0.000000   0.000000   0.099347
   66  C  6 YY    0.000000   0.062154   0.000000   0.000000  -0.179742
   67  C  6 ZZ    0.000000  -0.062044   0.000000   0.000000   0.080395
   68  C  6 XY    0.000000   0.000000   0.000000   0.000000   0.000000
   69  C  6 XZ   -0.005919   0.000000   0.000000   0.113756   0.000000
   70  C  6 YZ    0.000000   0.000000  -0.071341   0.000000   0.000000
   71  N  7  S    0.000000   0.000720   0.001836   0.000000   0.010294
   72  N  7  S    0.000000   0.024946   0.012793   0.000000  -0.018740
   73  N  7  S    0.000000   0.039739  -0.046310   0.000000  -0.370020
   74  N  7  X   -0.228753   0.000000   0.000000  -0.008446   0.000000
   75  N  7  Y    0.000000   0.024012  -0.020722   0.000000   0.024016
   76  N  7  Z    0.000000   0.046900  -0.064813   0.000000  -0.000054
   77  N  7  X   -0.267943   0.000000   0.000000   0.025832   0.000000
   78  N  7  Y    0.000000   0.071313  -0.024185   0.000000   0.049988
   79  N  7  Z    0.000000   0.075934  -0.129924   0.000000   0.082751
   80  N  7 XX    0.000000   0.002244   0.000575   0.000000   0.006806
   81  N  7 YY    0.000000  -0.004455  -0.001004   0.000000  -0.003505
   82  N  7 ZZ    0.000000   0.002211   0.000429   0.000000  -0.003301
   83  N  7 XY   -0.020022   0.000000   0.000000   0.015696   0.000000
   84  N  7 XZ    0.014838   0.000000   0.000000  -0.006963   0.000000
   85  N  7 YZ    0.000000   0.004454   0.005039   0.000000   0.001252
   86  N  7  S    0.000000   0.197316  -0.738461   0.000000  -7.975012
   87  N  7  X   -0.615413   0.000000   0.000000  -0.273095   0.000000
   88  N  7  Y    0.000000   0.271545  -0.283232   0.000000   1.772125
   89  N  7  Z    0.000000   0.692775  -0.892751   0.000000  -0.012569
   90  N  7 XX    0.000000   0.004853   0.002726   0.000000   0.063879
   91  N  7 YY    0.000000   0.006774  -0.011521   0.000000  -0.065449
   92  N  7 ZZ    0.000000  -0.011628   0.008795   0.000000   0.001570
   93  N  7 XY   -0.010972   0.000000   0.000000  -0.032951   0.000000
   94  N  7 XZ    0.011742   0.000000   0.000000  -0.000803   0.000000
   95  N  7 YZ    0.000000   0.006460  -0.010408   0.000000   0.001934
   96  N  8  S    0.000000   0.000720  -0.001836   0.000000   0.010294
   97  N  8  S    0.000000   0.024946  -0.012793   0.000000  -0.018740
   98  N  8  S    0.000000   0.039739   0.046310   0.000000  -0.370020
   99  N  8  X   -0.228753   0.000000   0.000000  -0.008446   0.000000
  100  N  8  Y    0.000000  -0.024012  -0.020722   0.000000  -0.024016
  101  N  8  Z    0.000000   0.046900   0.064813   0.000000  -0.000054
  102  N  8  X   -0.267943   0.000000   0.000000   0.025832   0.000000
  103  N  8  Y    0.000000  -0.071313  -0.024185   0.000000  -0.049988
  104  N  8  Z    0.000000   0.075934   0.129924   0.000000   0.082751
  105  N  8 XX    0.000000   0.002244  -0.000575   0.000000   0.006806
  106  N  8 YY    0.000000  -0.004455   0.001004   0.000000  -0.003505
  107  N  8 ZZ    0.000000   0.002211  -0.000429   0.000000  -0.003301
  108  N  8 XY    0.020022   0.000000   0.000000  -0.015696   0.000000
  109  N  8 XZ    0.014838   0.000000   0.000000  -0.006963   0.000000
  110  N  8 YZ    0.000000  -0.004454   0.005039   0.000000  -0.001252
  111  N  8  S    0.000000   0.197316   0.738461   0.000000  -7.975012
  112  N  8  X   -0.615413   0.000000   0.000000  -0.273095   0.000000
  113  N  8  Y    0.000000  -0.271545  -0.283232   0.000000  -1.772125
  114  N  8  Z    0.000000   0.692775   0.892751   0.000000  -0.012569
  115  N  8 XX    0.000000   0.004853  -0.002726   0.000000   0.063879
  116  N  8 YY    0.000000   0.006774   0.011521   0.000000  -0.065449
  117  N  8 ZZ    0.000000  -0.011628  -0.008795   0.000000   0.001570
  118  N  8 XY    0.010972   0.000000   0.000000   0.032951   0.000000
  119  N  8 XZ    0.011742   0.000000   0.000000  -0.000803   0.000000
  120  N  8 YZ    0.000000  -0.006460  -0.010408   0.000000  -0.001934

                     21         22         23         24         25
                   -0.0006     0.0154     0.0237     0.0291     0.0446
                     A          A          A          A          A   
    1  H  1  S    0.000000   0.009190   0.000000  -0.008799   0.000000
    2  H  1  S    0.000000  -1.183957   0.000000   2.494939   0.000000
    3  H  1  X    0.000000   0.000000   0.000000   0.000000   0.000000
    4  H  1  Y    0.010193   0.000000   0.000000   0.000000  -0.000701
    5  H  1  Z    0.000000   0.032216   0.000000  -0.012309   0.000000
    6  H  1  S    0.000000  -4.327868   0.000000   2.636010   0.000000
    7  H  1  X    0.000000   0.000000   0.000000   0.000000   0.000000
    8  H  1  Y   -0.006205   0.000000   0.000000   0.000000   0.217084
    9  H  1  Z    0.000000   0.249116   0.000000  -0.663025   0.000000
   10  H  2  S    0.064053  -0.013097   0.000000   0.033107   0.007979
   11  H  2  S    0.519972  -0.491982   0.000000  -0.822974  -0.466918
   12  H  2  X    0.000000   0.000000   0.011768   0.000000   0.000000
   13  H  2  Y    0.002886  -0.005671   0.000000  -0.003749   0.004474
   14  H  2  Z   -0.009160  -0.011854   0.000000  -0.030502  -0.011336
   15  H  2  S    0.202887   0.209774   0.000000  -1.886643  -2.292170
   16  H  2  X    0.000000   0.000000  -0.157995   0.000000   0.000000
   17  H  2  Y   -0.056924  -0.133953   0.000000  -0.110486  -0.128806
   18  H  2  Z    0.061896  -0.150812   0.000000  -0.390473  -0.189479
   19  H  3  S   -0.064053  -0.013097   0.000000   0.033107  -0.007979
   20  H  3  S   -0.519972  -0.491982   0.000000  -0.822974   0.466918
   21  H  3  X    0.000000   0.000000  -0.011768   0.000000   0.000000
   22  H  3  Y    0.002886   0.005671   0.000000   0.003749   0.004474
   23  H  3  Z    0.009160  -0.011854   0.000000  -0.030502   0.011336
   24  H  3  S   -0.202887   0.209774   0.000000  -1.886643   2.292170
   25  H  3  X    0.000000   0.000000   0.157995   0.000000   0.000000
   26  H  3  Y   -0.056924   0.133953   0.000000   0.110486  -0.128806
   27  H  3  Z   -0.061896  -0.150812   0.000000  -0.390473   0.189479
   28  H  4  S   -0.001039   0.071324   0.000000   0.047585   0.002514
   29  H  4  S    0.591878  -0.143853   0.000000   0.299864  -0.878552
   30  H  4  X    0.000000   0.000000   0.007369   0.000000   0.000000
   31  H  4  Y   -0.002068   0.010591   0.000000  -0.000314   0.025674
   32  H  4  Z    0.007901   0.012883   0.000000   0.003326   0.011146
   33  H  4  S   -3.629001  -0.818885   0.000000   0.030617  -0.892952
   34  H  4  X    0.000000   0.000000  -0.129966   0.000000   0.000000
   35  H  4  Y   -0.133939   0.139882   0.000000  -0.043886   0.032074
   36  H  4  Z    0.015069   0.187726   0.000000   0.145809   0.250514
   37  H  5  S    0.001039   0.071324   0.000000   0.047585  -0.002514
   38  H  5  S   -0.591878  -0.143853   0.000000   0.299864   0.878552
   39  H  5  X    0.000000   0.000000  -0.007369   0.000000   0.000000
   40  H  5  Y   -0.002068  -0.010591   0.000000   0.000314   0.025674
   41  H  5  Z   -0.007901   0.012883   0.000000   0.003326  -0.011146
   42  H  5  S    3.629001  -0.818885   0.000000   0.030617   0.892952
   43  H  5  X    0.000000   0.000000   0.129966   0.000000   0.000000
   44  H  5  Y   -0.133939  -0.139882   0.000000   0.043886   0.032074
   45  H  5  Z   -0.015069   0.187726   0.000000   0.145809  -0.250514
   46  C  6  S    0.000000  -0.037204   0.000000   0.016436   0.000000
   47  C  6  S    0.000000  -0.123263   0.000000   0.088427   0.000000
   48  C  6  S    0.000000   0.705175   0.000000  -0.658752   0.000000
   49  C  6  X    0.000000   0.000000   0.000000   0.000000   0.000000
   50  C  6  Y    0.027938   0.000000   0.000000   0.000000   0.087339
   51  C  6  Z    0.000000  -0.169459   0.000000   0.049792   0.000000
   52  C  6  X    0.000000   0.000000   0.000000   0.000000   0.000000
   53  C  6  Y    0.511373   0.000000   0.000000   0.000000   0.895523
   54  C  6  Z    0.000000  -0.052837   0.000000  -0.893320   0.000000
   55  C  6 XX    0.000000  -0.006607   0.000000  -0.018338   0.000000
   56  C  6 YY    0.000000  -0.018760   0.000000   0.027707   0.000000
   57  C  6 ZZ    0.000000   0.025367   0.000000  -0.009370   0.000000
   58  C  6 XY    0.000000   0.000000  -0.007471   0.000000   0.000000
   59  C  6 XZ    0.000000   0.000000   0.000000   0.000000   0.000000
   60  C  6 YZ    0.014942   0.000000   0.000000   0.000000  -0.016071
   61  C  6  S    0.000000   8.009133   0.000000  -0.961056   0.000000
   62  C  6  X    0.000000   0.000000   0.000000   0.000000   0.000000
   63  C  6  Y    7.557037   0.000000   0.000000   0.000000  -0.948177
   64  C  6  Z    0.000000   3.128684   0.000000  -0.852885   0.000000
   65  C  6 XX    0.000000  -0.175035   0.000000   0.071243   0.000000
   66  C  6 YY    0.000000  -0.018378   0.000000   0.152055   0.000000
   67  C  6 ZZ    0.000000   0.193413   0.000000  -0.223299   0.000000
   68  C  6 XY    0.000000   0.000000  -0.253714   0.000000   0.000000
   69  C  6 XZ    0.000000   0.000000   0.000000   0.000000   0.000000
   70  C  6 YZ    0.020797   0.000000   0.000000   0.000000  -0.447848
   71  N  7  S    0.008216  -0.007117   0.000000  -0.011469  -0.003684
   72  N  7  S   -0.054071  -0.076672   0.000000  -0.086865  -0.065139
   73  N  7  S   -0.458128  -0.061066   0.000000  -0.043176  -0.369972
   74  N  7  X    0.000000   0.000000  -0.118404   0.000000   0.000000
   75  N  7  Y   -0.012435  -0.059528   0.000000  -0.024778  -0.088569
   76  N  7  Z    0.008909  -0.006240   0.000000   0.112486   0.004957
   77  N  7  X    0.000000   0.000000  -0.030247   0.000000   0.000000
   78  N  7  Y    0.034655   0.148471   0.000000   0.094288   0.298316
   79  N  7  Z   -0.054091  -0.065221   0.000000  -0.110144  -0.105817
   80  N  7 XX   -0.003851  -0.003652   0.000000  -0.006851  -0.001604
   81  N  7 YY   -0.007329   0.005786   0.000000  -0.006408  -0.000812
   82  N  7 ZZ    0.011179  -0.002135   0.000000   0.013259   0.002417
   83  N  7 XY    0.000000   0.000000   0.007887   0.000000   0.000000
   84  N  7 XZ    0.000000   0.000000  -0.003227   0.000000   0.000000
   85  N  7 YZ   -0.000704   0.018553   0.000000   0.005935   0.003006
   86  N  7  S   -6.381678  -0.241470   0.000000   0.974373  -0.319298
   87  N  7  X    0.000000   0.000000   1.492420   0.000000   0.000000
   88  N  7  Y    0.808588   0.914380   0.000000   0.600230   3.688119
   89  N  7  Z   -1.079865  -1.181736   0.000000  -1.500309  -0.407235
   90  N  7 XX    0.036270   0.007749   0.000000  -0.029989  -0.054795
   91  N  7 YY   -0.018826  -0.008535   0.000000   0.008129   0.061232
   92  N  7 ZZ   -0.017444   0.000787   0.000000   0.021861  -0.006437
   93  N  7 XY    0.000000   0.000000  -0.011023   0.000000   0.000000
   94  N  7 XZ    0.000000   0.000000   0.035683   0.000000   0.000000
   95  N  7 YZ    0.002734  -0.025764   0.000000  -0.054420  -0.003058
   96  N  8  S   -0.008216  -0.007117   0.000000  -0.011469   0.003684
   97  N  8  S    0.054071  -0.076672   0.000000  -0.086865   0.065139
   98  N  8  S    0.458128  -0.061066   0.000000  -0.043176   0.369972
   99  N  8  X    0.000000   0.000000   0.118404   0.000000   0.000000
  100  N  8  Y   -0.012435   0.059528   0.000000   0.024778  -0.088569
  101  N  8  Z   -0.008909  -0.006240   0.000000   0.112486  -0.004957
  102  N  8  X    0.000000   0.000000   0.030247   0.000000   0.000000
  103  N  8  Y    0.034655  -0.148471   0.000000  -0.094288   0.298316
  104  N  8  Z    0.054091  -0.065221   0.000000  -0.110144   0.105817
  105  N  8 XX    0.003851  -0.003652   0.000000  -0.006851   0.001604
  106  N  8 YY    0.007329   0.005786   0.000000  -0.006408   0.000812
  107  N  8 ZZ   -0.011179  -0.002135   0.000000   0.013259  -0.002417
  108  N  8 XY    0.000000   0.000000   0.007887   0.000000   0.000000
  109  N  8 XZ    0.000000   0.000000   0.003227   0.000000   0.000000
  110  N  8 YZ   -0.000704  -0.018553   0.000000  -0.005935   0.003006
  111  N  8  S    6.381678  -0.241470   0.000000   0.974373   0.319298
  112  N  8  X    0.000000   0.000000  -1.492420   0.000000   0.000000
  113  N  8  Y    0.808588  -0.914380   0.000000  -0.600230   3.688119
  114  N  8  Z    1.079865  -1.181736   0.000000  -1.500309   0.407235
  115  N  8 XX   -0.036270   0.007749   0.000000  -0.029989   0.054795
  116  N  8 YY    0.018826  -0.008535   0.000000   0.008129  -0.061232
  117  N  8 ZZ    0.017444   0.000787   0.000000   0.021861   0.006437
  118  N  8 XY    0.000000   0.000000  -0.011023   0.000000   0.000000
  119  N  8 XZ    0.000000   0.000000  -0.035683   0.000000   0.000000
  120  N  8 YZ    0.002734   0.025764   0.000000   0.054420  -0.003058

                     26         27         28         29         30
                    0.0560     0.0561     0.0728     0.0752     0.1205
                     A          A          A          A          A   
    1  H  1  S    0.000000  -0.005639   0.000000  -0.077565   0.000000
    2  H  1  S    0.000000   0.971499   0.000000  -1.410039   0.000000
    3  H  1  X   -0.008720   0.000000   0.000000   0.000000   0.000000
    4  H  1  Y    0.000000   0.000000   0.005471   0.000000  -0.009252
    5  H  1  Z    0.000000   0.001714   0.000000   0.014662   0.000000
    6  H  1  S    0.000000   3.583352   0.000001  -6.088883   0.000000
    7  H  1  X    0.099690   0.000000   0.000000   0.000000   0.000000
    8  H  1  Y    0.000000   0.000000  -0.322910   0.000000  -0.722237
    9  H  1  Z    0.000000  -0.311931   0.000000   0.086992   0.000000
   10  H  2  S    0.000000  -0.035425  -0.007173  -0.018917  -0.177693
   11  H  2  S    0.000000  -0.023702   1.689622  -1.026863  -1.043436
   12  H  2  X   -0.004198   0.000000   0.000000   0.000000   0.000000
   13  H  2  Y    0.000000   0.019463  -0.004953   0.011761   0.009746
   14  H  2  Z    0.000000   0.004716   0.035642  -0.018630   0.001249
   15  H  2  S    0.000000   0.126280   4.633206  -1.293251  -0.794043
   16  H  2  X    0.094907   0.000000   0.000000   0.000000   0.000000
   17  H  2  Y    0.000000   0.030126  -0.120798   0.196233  -0.192867
   18  H  2  Z    0.000000   0.246704   0.438594  -0.105215   0.360984
   19  H  3  S    0.000000  -0.035425   0.007173  -0.018917   0.177693
   20  H  3  S    0.000000  -0.023702  -1.689622  -1.026863   1.043436
   21  H  3  X   -0.004198   0.000000   0.000000   0.000000   0.000000
   22  H  3  Y    0.000000  -0.019463  -0.004953  -0.011761   0.009746
   23  H  3  Z    0.000000   0.004716  -0.035642  -0.018630  -0.001249
   24  H  3  S    0.000000   0.126280  -4.633205  -1.293251   0.794043
   25  H  3  X    0.094907   0.000000   0.000000   0.000000   0.000000
   26  H  3  Y    0.000000  -0.030126  -0.120798  -0.196233  -0.192867
   27  H  3  Z    0.000000   0.246704  -0.438594  -0.105215  -0.360984
   28  H  4  S    0.000000  -0.071638   0.012624  -0.083955  -0.037318
   29  H  4  S    0.000000  -1.037914  -1.192920   1.531850  -0.141537
   30  H  4  X   -0.006944   0.000000   0.000000   0.000000   0.000000
   31  H  4  Y    0.000000   0.030152   0.022428  -0.020209   0.007736
   32  H  4  Z    0.000000  -0.006709   0.019463  -0.022796  -0.010785
   33  H  4  S    0.000000  -2.722252  -2.702940   2.569555  -1.618376
   34  H  4  X    0.354236   0.000000   0.000000   0.000000   0.000000
   35  H  4  Y    0.000000   0.038808   0.301132  -0.661870  -0.062543
   36  H  4  Z    0.000000  -0.031341   0.083666  -0.268386  -0.296464
   37  H  5  S    0.000000  -0.071638  -0.012624  -0.083955   0.037318
   38  H  5  S    0.000000  -1.037914   1.192920   1.531850   0.141537
   39  H  5  X   -0.006944   0.000000   0.000000   0.000000   0.000000
   40  H  5  Y    0.000000  -0.030152   0.022428   0.020209   0.007736
   41  H  5  Z    0.000000  -0.006709  -0.019463  -0.022796   0.010785
   42  H  5  S    0.000000  -2.722252   2.702939   2.569556   1.618376
   43  H  5  X    0.354236   0.000000   0.000000   0.000000   0.000000
   44  H  5  Y    0.000000  -0.038808   0.301132   0.661870  -0.062543
   45  H  5  Z    0.000000  -0.031341  -0.083666  -0.268386   0.296464
   46  C  6  S    0.000000   0.026880   0.000000   0.006477   0.000000
   47  C  6  S    0.000000   0.137023   0.000000  -0.032218   0.000000
   48  C  6  S    0.000000   0.791734   0.000000   0.223425   0.000000
   49  C  6  X   -0.185328   0.000000   0.000000   0.000000   0.000000
   50  C  6  Y    0.000000   0.000000  -0.065464   0.000000  -0.074290
   51  C  6  Z    0.000000  -0.029003   0.000000  -0.021114   0.000000
   52  C  6  X    0.096623   0.000000   0.000000   0.000000   0.000000
   53  C  6  Y    0.000000   0.000000  -0.266925   0.000000   0.268189
   54  C  6  Z    0.000000  -0.725805   0.000000   0.353140   0.000000
   55  C  6 XX    0.000000  -0.004810   0.000000   0.006941   0.000000
   56  C  6 YY    0.000000  -0.002865   0.000000   0.026434   0.000000
   57  C  6 ZZ    0.000000   0.007674   0.000000  -0.033375   0.000000
   58  C  6 XY    0.000000   0.000000   0.000000   0.000000   0.000000
   59  C  6 XZ    0.001323   0.000000   0.000000   0.000000   0.000000
   60  C  6 YZ    0.000000   0.000000  -0.014522   0.000000  -0.068738
   61  C  6  S    0.000000   3.578391  -0.000001  11.478434   0.000000
   62  C  6  X    2.777210   0.000000   0.000000   0.000000   0.000000
   63  C  6  Y    0.000000   0.000000  -2.257347   0.000000   5.316455
   64  C  6  Z    0.000000  -2.098193   0.000000   4.266306   0.000000
   65  C  6 XX    0.000000   0.199839   0.000000   0.170598   0.000000
   66  C  6 YY    0.000000  -0.150507   0.000000  -0.501063   0.000000
   67  C  6 ZZ    0.000000  -0.049331   0.000000   0.330465   0.000000
   68  C  6 XY    0.000000   0.000000   0.000000   0.000000   0.000000
   69  C  6 XZ   -0.188269   0.000000   0.000000   0.000000   0.000000
   70  C  6 YZ    0.000000   0.000000   0.329244   0.000000   0.260101
   71  N  7  S    0.000000   0.003290  -0.001218   0.003245   0.008316
   72  N  7  S    0.000000   0.000536   0.022069   0.066469   0.095498
   73  N  7  S    0.000000  -0.038849   0.201765   0.236387   0.102009
   74  N  7  X    0.194122   0.000000   0.000000   0.000000   0.000000
   75  N  7  Y    0.000000  -0.007486  -0.072648   0.056453  -0.016684
   76  N  7  Z    0.000000  -0.057198  -0.141205   0.103593  -0.034994
   77  N  7  X    0.135827   0.000000   0.000000   0.000000   0.000000
   78  N  7  Y    0.000000   0.273848  -0.063607  -0.193882   0.005637
   79  N  7  Z    0.000000   0.039934   0.188848  -0.014386  -0.144724
   80  N  7 XX    0.000000   0.002871  -0.001357   0.004904   0.018892
   81  N  7 YY    0.000000   0.012926   0.009699  -0.007457   0.007326
   82  N  7 ZZ    0.000000  -0.015797  -0.008341   0.002553  -0.026218
   83  N  7 XY    0.008091   0.000000   0.000000   0.000000   0.000000
   84  N  7 XZ    0.005804   0.000000   0.000000   0.000000   0.000000
   85  N  7 YZ    0.000000  -0.015699   0.013108  -0.017168   0.003624
   86  N  7  S    0.000000  -0.777393  -0.374483  -4.013358  -2.306491
   87  N  7  X   -2.097514   0.000000   0.000000   0.000000   0.000000
   88  N  7  Y    0.000000   2.383626   1.555172  -0.010446   0.304555
   89  N  7  Z    0.000000   0.073052   3.610283  -3.343149  -1.586771
   90  N  7 XX    0.000000  -0.002364   0.025849   0.032135   0.027337
   91  N  7 YY    0.000000  -0.065384   0.071636  -0.114805  -0.045361
   92  N  7 ZZ    0.000000   0.067748  -0.097485   0.082670   0.018024
   93  N  7 XY    0.056623   0.000000   0.000000   0.000000   0.000000
   94  N  7 XZ   -0.022508   0.000000   0.000000   0.000000   0.000000
   95  N  7 YZ    0.000000   0.057299   0.079327  -0.039642   0.028139
   96  N  8  S    0.000000   0.003290   0.001218   0.003245  -0.008316
   97  N  8  S    0.000000   0.000536  -0.022069   0.066469  -0.095498
   98  N  8  S    0.000000  -0.038849  -0.201765   0.236387  -0.102009
   99  N  8  X    0.194122   0.000000   0.000000   0.000000   0.000000
  100  N  8  Y    0.000000   0.007486  -0.072648  -0.056453  -0.016684
  101  N  8  Z    0.000000  -0.057198   0.141205   0.103594   0.034994
  102  N  8  X    0.135827   0.000000   0.000000   0.000000   0.000000
  103  N  8  Y    0.000000  -0.273848  -0.063608   0.193882   0.005637
  104  N  8  Z    0.000000   0.039934  -0.188848  -0.014387   0.144724
  105  N  8 XX    0.000000   0.002871   0.001357   0.004904  -0.018892
  106  N  8 YY    0.000000   0.012926  -0.009699  -0.007457  -0.007326
  107  N  8 ZZ    0.000000  -0.015797   0.008341   0.002553   0.026218
  108  N  8 XY   -0.008091   0.000000   0.000000   0.000000   0.000000
  109  N  8 XZ    0.005804   0.000000   0.000000   0.000000   0.000000
  110  N  8 YZ    0.000000   0.015699   0.013108   0.017168   0.003624
  111  N  8  S    0.000000  -0.777393   0.374484  -4.013358   2.306491
  112  N  8  X   -2.097514   0.000000   0.000000   0.000000   0.000000
  113  N  8  Y    0.000000  -2.383627   1.555172   0.010446   0.304555
  114  N  8  Z    0.000000   0.073052  -3.610283  -3.343150   1.586771
  115  N  8 XX    0.000000  -0.002364  -0.025849   0.032135  -0.027337
  116  N  8 YY    0.000000  -0.065384  -0.071636  -0.114805   0.045361
  117  N  8 ZZ    0.000000   0.067748   0.097485   0.082670  -0.018024
  118  N  8 XY   -0.056623   0.000000   0.000000   0.000000   0.000000
  119  N  8 XZ   -0.022508   0.000000   0.000000   0.000000   0.000000
  120  N  8 YZ    0.000000  -0.057299   0.079327   0.039642   0.028139

                     31         32         33         34         35
                    0.1369     0.1487     0.1642     0.1670     0.2041
                     A          A          A          A          A   
    1  H  1  S    0.247757   0.000000  -0.052407   0.000000   0.000000
    2  H  1  S    3.794653   0.000000   0.906996   0.000000   0.000000
    3  H  1  X    0.000000   0.014652   0.000000   0.000000   0.000000
    4  H  1  Y    0.000000   0.000000   0.000000  -0.016316   0.021124
    5  H  1  Z    0.015626   0.000000   0.006287   0.000000   0.000000
    6  H  1  S    2.142387   0.000000   1.343713   0.000000   0.000000
    7  H  1  X    0.000000  -0.234336   0.000000   0.000000   0.000000
    8  H  1  Y    0.000000   0.000000   0.000000   0.336844   1.100731
    9  H  1  Z   -0.024353   0.000000  -0.690678   0.000000   0.000000
[...]
   36  H  4  Z    0.410157   0.134931   0.025989  -0.227518
   37  H  5  S    1.478905   0.576592  -0.438174   1.339085
   38  H  5  S    2.305795  -2.193578  -0.993112   1.822873
   39  H  5  X    0.000000   0.000000   0.000000   0.000000
   40  H  5  Y    0.915043   0.556883  -0.017357   0.502424
   41  H  5  Z   -0.304836   0.057454   0.331589  -0.490542
   42  H  5  S    0.404701  -0.117796  -0.193885   0.326909
   43  H  5  X    0.000000   0.000000   0.000000   0.000000
   44  H  5  Y    0.417675  -0.759510  -0.310442   0.399093
   45  H  5  Z   -0.410157   0.134931  -0.025989  -0.227518
   46  C  6  S    0.000000  -0.443044   0.000000  -0.117260
   47  C  6  S    0.000000  -0.584463   0.000000  -0.185831
   48  C  6  S    0.000000  13.426612   0.000000   2.965602
   49  C  6  X    0.000000   0.000000   0.000000   0.000000
   50  C  6  Y    0.649807   0.000000   0.138226   0.000000
   51  C  6  Z    0.000000   0.069109   0.000000   0.281799
   52  C  6  X    0.000000   0.000000   0.000000   0.000000
   53  C  6  Y    1.550271   0.000000   0.057820   0.000000
   54  C  6  Z    0.000000  -1.722946   0.000000   0.410926
   55  C  6 XX    0.000000  -1.005505   0.000000  -0.228752
   56  C  6 YY    0.000000   0.793221   0.000000  -1.148623
   57  C  6 ZZ    0.000000   0.212284   0.000000   1.377375
   58  C  6 XY    0.000000   0.000000   0.000000   0.000000
   59  C  6 XZ    0.000000   0.000000   0.000000   0.000000
   60  C  6 YZ   -0.409897   0.000000  -0.983643   0.000000
   61  C  6  S    0.000000   2.902533   0.000000   2.189121
   62  C  6  X    0.000000   0.000000   0.000000   0.000000
   63  C  6  Y    0.002472   0.000000   0.342037   0.000000
   64  C  6  Z    0.000000  -0.522187   0.000000   0.483143
   65  C  6 XX    0.000000  -1.654879   0.000000  -0.243212
   66  C  6 YY    0.000000   3.436297   0.000000   0.178414
   67  C  6 ZZ    0.000000  -1.781418   0.000000   0.064798
   68  C  6 XY    0.000000   0.000000   0.000000   0.000000
   69  C  6 XZ    0.000000   0.000000   0.000000   0.000000
   70  C  6 YZ   -1.071301   0.000000   0.236849   0.000000
   71  N  7  S    0.039716   0.528989  -0.258092   0.229793
   72  N  7  S    0.133525   0.837639  -0.469554   0.422459
   73  N  7  S    0.295684  -8.823323   1.975322  -1.746835
   74  N  7  X    0.000000   0.000000   0.000000   0.000000
   75  N  7  Y    0.369494  -0.028024   0.223831  -0.343132
   76  N  7  Z    0.130479   0.164426  -0.439372  -0.098092
   77  N  7  X    0.000000   0.000000   0.000000   0.000000
   78  N  7  Y    2.386129   2.233633  -0.169870  -0.601378
   79  N  7  Z    0.630680  -0.967625  -1.774206  -1.098841
   80  N  7 XX   -0.254182   0.816594  -0.258260   0.164835
   81  N  7 YY    0.050825  -0.080683  -0.768198  -0.710901
   82  N  7 ZZ    0.203356  -0.735911   1.026458   0.546066
   83  N  7 XY    0.000000   0.000000   0.000000   0.000000
   84  N  7 XZ    0.000000   0.000000   0.000000   0.000000
   85  N  7 YZ    0.991280   0.045841  -0.195087  -0.929021
   86  N  7  S   -0.210587  -1.842170   0.865678  -1.357540
   87  N  7  X    0.000000   0.000000   0.000000   0.000000
   88  N  7  Y    1.142801   0.291169  -0.285267  -0.209641
   89  N  7  Z    0.189472   0.610820  -0.805215  -0.600585
   90  N  7 XX   -0.115053   0.352131  -0.062517   0.094304
   91  N  7 YY   -0.145302   0.533960  -0.328657  -0.360410
   92  N  7 ZZ    0.260355  -0.886091   0.391174   0.266105
   93  N  7 XY    0.000000   0.000000   0.000000   0.000000
   94  N  7 XZ    0.000000   0.000000   0.000000   0.000000
   95  N  7 YZ    0.080082   0.518163  -0.187263  -0.330219
   96  N  8  S   -0.039716   0.528989   0.258092   0.229793
   97  N  8  S   -0.133525   0.837639   0.469554   0.422459
   98  N  8  S   -0.295683  -8.823323  -1.975323  -1.746835
   99  N  8  X    0.000000   0.000000   0.000000   0.000000
  100  N  8  Y    0.369494   0.028024   0.223831   0.343132
  101  N  8  Z   -0.130479   0.164426   0.439372  -0.098092
  102  N  8  X    0.000000   0.000000   0.000000   0.000000
  103  N  8  Y    2.386130  -2.233633  -0.169870   0.601378
  104  N  8  Z   -0.630680  -0.967625   1.774206  -1.098841
  105  N  8 XX    0.254182   0.816594   0.258260   0.164835
  106  N  8 YY   -0.050825  -0.080683   0.768198  -0.710901
  107  N  8 ZZ   -0.203356  -0.735911  -1.026458   0.546066
  108  N  8 XY    0.000000   0.000000   0.000000   0.000000
  109  N  8 XZ    0.000000   0.000000   0.000000   0.000000
  110  N  8 YZ    0.991280  -0.045841  -0.195087   0.929021
  111  N  8  S    0.210587  -1.842170  -0.865678  -1.357540
  112  N  8  X    0.000000   0.000000   0.000000   0.000000
  113  N  8  Y    1.142801  -0.291169  -0.285267   0.209641
  114  N  8  Z   -0.189472   0.610820   0.805215  -0.600585
  115  N  8 XX    0.115053   0.352131   0.062517   0.094304
  116  N  8 YY    0.145302   0.533960   0.328657  -0.360410
  117  N  8 ZZ   -0.260355  -0.886091  -0.391174   0.266105
  118  N  8 XY    0.000000   0.000000   0.000000   0.000000
  119  N  8 XZ    0.000000   0.000000   0.000000   0.000000
  120  N  8 YZ    0.080082  -0.518163  -0.187263   0.330219
 ...... END OF RHF CALCULATION ......
 STEP CPU TIME =     2.50 TOTAL CPU TIME =        5.0 (    0.1 MIN)
 TOTAL WALL CLOCK TIME=        8.0 SECONDS, CPU UTILIZATION IS  62.75%

     ----------------------------------------------------------------
     PROPERTY VALUES FOR THE RHF   SELF-CONSISTENT FIELD WAVEFUNCTION
     ----------------------------------------------------------------

          -----------------
          ENERGY COMPONENTS
          -----------------

         WAVEFUNCTION NORMALIZATION =       1.0000000000

                ONE ELECTRON ENERGY =    -353.9467797359
                TWO ELECTRON ENERGY =     124.4216853476
           NUCLEAR REPULSION ENERGY =      80.0312601802
                                      ------------------
                       TOTAL ENERGY =    -149.4938342081

 ELECTRON-ELECTRON POTENTIAL ENERGY =     124.4216853476
  NUCLEUS-ELECTRON POTENTIAL ENERGY =    -503.2345092135
   NUCLEUS-NUCLEUS POTENTIAL ENERGY =      80.0312601802
                                      ------------------
             TOTAL POTENTIAL ENERGY =    -298.7815636857
               TOTAL KINETIC ENERGY =     149.2877294776
                 VIRIAL RATIO (V/T) =       2.0013805872

  ...... PI ENERGY ANALYSIS ......

 ENERGY ANALYSIS:
            FOCK ENERGY=   -105.1034022170
          BARE H ENERGY=   -353.9467797359
     ELECTRONIC ENERGY =   -229.5250909764
         KINETIC ENERGY=    149.2877294776
          N-N REPULSION=     80.0312601802
           TOTAL ENERGY=   -149.4938307962
        SIGMA PART(1+2)=   -208.1120284531
               (K,V1,2)=    143.2433548758   -457.2577392136    105.9023558846
           PI PART(1+2)=    -21.4130625233
               (K,V1,2)=      6.0443746018    -45.9767699999     18.5193328748
  SIGMA SKELETON, ERROR=   -128.0807682729      0.0000000000
             MIXED PART= 0.00000E+00 0.00000E+00 0.00000E+00 0.00000E+00
 ...... END OF PI ENERGY ANALYSIS ......

          ---------------------------------------
          MULLIKEN AND LOWDIN POPULATION ANALYSES
          ---------------------------------------

     MULLIKEN ATOMIC POPULATION IN EACH MOLECULAR ORBITAL

                      1          2          3          4          5

                  2.000000   2.000000   2.000000   2.000000   2.000000

    1             0.000068   0.000498   0.004360   0.027241  -0.022613
    2             0.000270   0.000209  -0.000199   0.120237   0.123795
    3             0.000270   0.000209  -0.000199   0.120237   0.123795
    4             0.000511  -0.000060  -0.000074   0.055890   0.120478
    5             0.000511  -0.000060  -0.000074   0.055890   0.120478
    6             0.004410   0.005618   2.001405   0.459471   0.030390
    7             0.997096   0.996678  -0.002609   0.580517   0.751839
    8             0.996865   0.996909  -0.002609   0.580517   0.751839

                      6          7          8          9         10

                  2.000000   2.000000   2.000000   2.000000   2.000000

    1             0.203105   0.262786   0.012345   0.007599   0.603780
    2             0.139407   0.044472   0.276597   0.066222   0.207186
    3             0.139407   0.044472   0.276597   0.066222   0.207186
    4             0.070125   0.250529  -0.010989   0.362646   0.035944
    5             0.070125   0.250529  -0.010989   0.362646   0.035944
    6             0.533701   0.207340   0.385953   0.097632   0.451710
    7             0.422065   0.469937   0.535242   0.518516   0.229126
    8             0.422065   0.469937   0.535242   0.518516   0.229126

                     11         12

                  2.000000   2.000000

    1            -0.007259   0.000000
    2             0.007165   0.009981
    3             0.007165   0.009981
    4             0.004309   0.014913
    5             0.004309   0.014913
    6             0.522930   0.063322
    7             0.730690   0.943445
    8             0.730690   0.943445

               ----- POPULATIONS IN EACH AO -----
                             MULLIKEN      LOWDIN
              1  H  1  S      0.75212     0.52002
              2  H  1  S      0.31497     0.14386
              3  H  1  X      0.00291     0.00679
              4  H  1  Y      0.00239     0.00767
              5  H  1  Z      0.02529     0.04598
              6  H  1  S      0.02103     0.01607
              7  H  1  X     -0.01017     0.03361
              8  H  1  Y     -0.00499     0.03053
              9  H  1  Z     -0.01163     0.06139
             10  H  2  S      0.73302     0.47018
             11  H  2  S      0.22462     0.11346
             12  H  2  X      0.01310     0.03233
             13  H  2  Y      0.00516     0.01990
             14  H  2  Z      0.03791     0.06384
             15  H  2  S     -0.00475     0.01417
             16  H  2  X      0.00405     0.06621
             17  H  2  Y     -0.01551     0.04069
             18  H  2  Z     -0.00227     0.07369
             19  H  3  S      0.73302     0.47018
             20  H  3  S      0.22462     0.11346
             21  H  3  X      0.01310     0.03233
             22  H  3  Y      0.00516     0.01990
             23  H  3  Z      0.03791     0.06384
             24  H  3  S     -0.00475     0.01417
             25  H  3  X      0.00405     0.06621
             26  H  3  Y     -0.01551     0.04069
             27  H  3  Z     -0.00227     0.07369
             28  H  4  S      0.73024     0.46586
             29  H  4  S      0.16111     0.11216
             30  H  4  X      0.01401     0.03313
             31  H  4  Y      0.02916     0.05103
             32  H  4  Z      0.01420     0.03202
             33  H  4  S     -0.00842     0.01364
             34  H  4  X      0.00521     0.06908
             35  H  4  Y     -0.01760     0.05969
             36  H  4  Z     -0.02370     0.05244
             37  H  5  S      0.73024     0.46586
             38  H  5  S      0.16111     0.11216
             39  H  5  X      0.01401     0.03313
             40  H  5  Y      0.02916     0.05103
             41  H  5  Z      0.01420     0.03202
             42  H  5  S     -0.00842     0.01364
             43  H  5  X      0.00521     0.06908
             44  H  5  Y     -0.01760     0.05969
             45  H  5  Z     -0.02370     0.05244
             46  C  6  S      2.00677     1.77719
             47  C  6  S      0.69125     0.44950
             48  C  6  S      0.10806     0.16643
             49  C  6  X      0.39154     0.31476
             50  C  6  Y      0.74196     0.61972
             51  C  6  Z      0.78596     0.64738
             52  C  6  X      0.14176     0.19493
             53  C  6  Y     -0.14377     0.19136
             54  C  6  Z     -0.00553     0.25430
             55  C  6 XX      0.03300     0.04677
             56  C  6 YY      0.02586     0.19097
             57  C  6 ZZ      0.05811     0.16117
             58  C  6 XY      0.00886     0.10243
             59  C  6 XZ      0.04139     0.01294
             60  C  6 YZ      0.00000     0.07970
             61  C  6  S      0.10310     0.03980
             62  C  6  X     -0.00372     0.01629
             63  C  6  Y      0.01799     0.02831
             64  C  6  Z     -0.01926     0.02070
             65  C  6 XX     -0.05501     0.00564
             66  C  6 YY     -0.01496     0.15649
             67  C  6 ZZ      0.00521     0.11841
             68  C  6 XY     -0.01551     0.18949
             69  C  6 XZ     -0.13918     0.02094
             70  C  6 YZ      0.00000     0.13818
             71  N  7  S      2.00555     1.84137
             72  N  7  S      0.71515     0.48350
             73  N  7  S      0.73783     0.24100
             74  N  7  X      0.90777     0.82127
             75  N  7  Y      0.77373     0.66954
             76  N  7  Z      0.78010     0.67384
             77  N  7  X      0.71318     0.45669
             78  N  7  Y      0.28059     0.35878
             79  N  7  Z      0.29589     0.38865
             80  N  7 XX      0.00859     0.08538
             81  N  7 YY      0.00498     0.15169
             82  N  7 ZZ      0.00326     0.14238
             83  N  7 XY      0.00089     0.00415
             84  N  7 XZ      0.01113     0.00113
             85  N  7 YZ      0.00000     0.02128
             86  N  7  S     -0.09463     0.04937
             87  N  7  X      0.03485     0.03401
             88  N  7  Y      0.00150     0.04137
             89  N  7  Z      0.00297     0.03849
             90  N  7 XX     -0.01440     0.01025
             91  N  7 YY      0.00145     0.09143
             92  N  7 ZZ      0.01254     0.07914
             93  N  7 XY      0.00165     0.02917
             94  N  7 XZ     -0.01201     0.00674
             95  N  7 YZ      0.00000     0.09102
             96  N  8  S      2.00555     1.84137
             97  N  8  S      0.71515     0.48350
             98  N  8  S      0.73783     0.24100
             99  N  8  X      0.90777     0.82127
            100  N  8  Y      0.77373     0.66954
            101  N  8  Z      0.78010     0.67384
            102  N  8  X      0.71318     0.45669
            103  N  8  Y      0.28059     0.35878
            104  N  8  Z      0.29589     0.38865
            105  N  8 XX      0.00859     0.08538
            106  N  8 YY      0.00498     0.15169
            107  N  8 ZZ      0.00326     0.14238
            108  N  8 XY      0.00089     0.00415
            109  N  8 XZ      0.01113     0.00113
            110  N  8 YZ      0.00000     0.02128
            111  N  8  S     -0.09463     0.04937
            112  N  8  X      0.03485     0.03401
            113  N  8  Y      0.00150     0.04137
            114  N  8  Z      0.00297     0.03849
            115  N  8 XX     -0.01440     0.01025
            116  N  8 YY      0.00145     0.09143
            117  N  8 ZZ      0.01254     0.07914
            118  N  8 XY      0.00165     0.02917
            119  N  8 XZ     -0.01201     0.00674
            120  N  8 YZ      0.00000     0.09102

          ----- MULLIKEN ATOMIC OVERLAP POPULATIONS -----
          (OFF-DIAGONAL ELEMENTS NEED TO BE MULTIPLIED BY 2)

             1           2           3           4           5

    1    0.9491675
    2    0.0231271   0.7697954
    3    0.0231271   0.0070171   0.7697954
    4   -0.0125738  -0.1477264  -0.0024589   0.7313501
    5   -0.0125738  -0.0024589  -0.1477264  -0.0008309   0.7313501
    6    0.2613430  -0.0904275  -0.0904275  -0.1133947  -0.1133947
    7   -0.0698532   0.4453633  -0.0093493   0.4342682   0.0155875
    8   -0.0698532  -0.0093493   0.4453633   0.0155875   0.4342682

             6           7           8

    6    4.2062464
    7    0.3519693   6.0795082
    8    0.3519693  -0.0749531   6.0795082

          TOTAL MULLIKEN AND LOWDIN ATOMIC POPULATIONS
       ATOM         MULL.POP.    CHARGE          LOW.POP.     CHARGE
    1 H             1.091911   -0.091911         0.865925    0.134075
    2 H             0.995341    0.004659         0.894470    0.105530
    3 H             0.995341    0.004659         0.894470    0.105530
    4 H             0.904221    0.095779         0.889045    0.110955
    5 H             0.904221    0.095779         0.889045    0.110955
    6 C             4.763884    1.236116         5.943789    0.056211
    7 N             7.172541   -0.172541         6.811628    0.188372
    8 N             7.172541   -0.172541         6.811628    0.188372

          MULLIKEN SPHERICAL HARMONIC POPULATIONS
       ATOM           S       P       D      F      G      H      I    TOTAL
    1 H             1.09    0.00    0.00   0.00   0.00   0.00   0.00    1.09
    2 H             0.95    0.04    0.00   0.00   0.00   0.00   0.00    1.00
    3 H             0.95    0.04    0.00   0.00   0.00   0.00   0.00    1.00
    4 H             0.88    0.02    0.00   0.00   0.00   0.00   0.00    0.90
    5 H             0.88    0.02    0.00   0.00   0.00   0.00   0.00    0.90
    6 C             2.91    1.91   -0.05   0.00   0.00   0.00   0.00    4.76
    7 N             3.36    3.79    0.02   0.00   0.00   0.00   0.00    7.17
    8 N             3.36    3.79    0.02   0.00   0.00   0.00   0.00    7.17

          -------------------------------
          BOND ORDER AND VALENCE ANALYSIS     BOND ORDER THRESHOLD=0.050
          -------------------------------

                   BOND                       BOND                       BOND
  ATOM PAIR DIST  ORDER      ATOM PAIR DIST  ORDER      ATOM PAIR DIST  ORDER
    1   6  1.085  0.982        1   7  2.043 -0.059        1   8  2.043 -0.059
    2   4  1.720 -0.082        2   6  2.038 -0.097        2   7  1.009  1.132
    3   5  1.720 -0.082        3   6  2.038 -0.097        3   8  1.009  1.132
    4   6  2.006 -0.078        4   7  1.007  1.043        5   6  2.006 -0.078
    5   8  1.007  1.043        6   7  1.304  1.187        6   8  1.304  1.187
    7   8  2.316  0.075

                       TOTAL       BONDED        FREE
      ATOM            VALENCE     VALENCE     VALENCE
    1 H                 0.888       0.888       0.000
    2 H                 0.980       0.980       0.000
    3 H                 0.980       0.980       0.000
    4 H                 0.886       0.886       0.000
    5 H                 0.886       0.886       0.000
    6 C                 3.005       3.005       0.000
    7 N                 3.390       3.390       0.000
    8 N                 3.390       3.390       0.000

          ---------------------
          ELECTROSTATIC MOMENTS
          ---------------------

 POINT   1           X           Y           Z (BOHR)    CHARGE
                 0.000000    0.000000    0.004366        1.00 (A.U.)
         DX          DY          DZ         /D/  (DEBYE)
     0.000000    0.000000   -0.002600    0.002600
 ...... END OF PROPERTY EVALUATION ......
 STEP CPU TIME =     0.02 TOTAL CPU TIME =        5.0 (    0.1 MIN)
 TOTAL WALL CLOCK TIME=        8.0 SECONDS, CPU UTILIZATION IS  63.00%
                440000  WORDS OF DYNAMIC MEMORY USED
 EXECUTION OF GAMESS TERMINATED NORMALLY Fri Sep 22 20:14:51 2017
 DDI: 1128 bytes (0.0 MB / 0 MWords) used by master data server.

 ----------------------------------------
 CPU timing information for all processes
 ========================================
 0: 4.104256 + 0.948059 = 5.052315
 ----------------------------------------
 ddikick.x: exited gracefully.
----- accounting info -----
Fri Sep 22 20:14:54 CEST 2017
Files used on the master node lpqlx139 were:
-rw-r--r-- 1 scemama scemama    223229 Sep 22 20:14 /dev/shm//gamess/C1.dat
-rw-r--r-- 1 scemama scemama       568 Sep 22 20:14 /dev/shm//gamess/C1.F05
-rw-r--r-- 1 scemama scemama 162554448 Sep 22 20:14 /dev/shm//gamess/C1.F08
-rw-r--r-- 1 scemama scemama   6544000 Sep 22 20:14 /dev/shm//gamess/C1.F10
0.176u 0.044s 0:11.66 1.8%	0+0k 0+0io 0pf+0w
