----- GAMESS execution script -----
This job is running on host lpqlx139
under operating system Linux at Tue Sep 19 11:09:09 CEST 2017
Available scratch disk space (Kbyte units) at beginning of the job is
Filesystem                                             1K-blocks     Used Available Use% Mounted on
/dev/disk/by-uuid/e0d35396-14d3-4d0f-9cc9-2a3899cf3e0f  51175000 49545388   1629612  97% /

 Distributed Data Interface kickoff program.
 Initiating 8 compute processes on 1 nodes to run the following command:
 /usr/local/gamess/gamess.01.x C11 

          ******************************************************
          *         GAMESS VERSION = 22 FEB 2006 (R5)          *
          *             FROM IOWA STATE UNIVERSITY             *
          * M.W.SCHMIDT, K.K.BALDRIDGE, J.A.BOATZ, S.T.ELBERT, *
          *   M.S.GORDON, J.H.JENSEN, S.KOSEKI, N.MATSUNAGA,   *
          *          K.A.NGUYEN, S.J.SU, T.L.WINDUS,           *
          *       TOGETHER WITH M.DUPUIS, J.A.MONTGOMERY       *
          *         J.COMPUT.CHEM.  14, 1347-1363(1993)        *
          ***************** AMD 64 BIT VERSION *****************

     SINCE 1993, STUDENTS AND POSTDOCS WORKING AT IOWA STATE UNIVERSITY
     AND ALSO IN THEIR VARIOUS JOBS AFTER LEAVING ISU HAVE MADE IMPORTANT
     CONTRIBUTIONS TO THE CODE:
     IVANA ADAMOVIC, CHRISTINE AIKENS, YURI ALEXEEV, POOJA ARORA, ROB BELL,
     PRADIPTA BANDYOPADHYAY, BRETT BODE, GALINA CHABAN, WEI CHEN,
     CHEOL HO CHOI, PAUL DAY, TIM DUDLEY, DMITRI FEDOROV, GRAHAM FLETCHER,
     MARK FREITAG, KURT GLAESEMANN, GRANT MERRILL, TAKESHI NAGATA,
     HEATHER NETZLOFF, BOSILJKA NJEGIC, RYAN OLSON, MIKE PAK, JIM SHOEMAKER,
     LYUDMILA SLIPCHENKO, JIE SONG, TETSUYA TAKETSUGU, SIMON WEBB.

     ADDITIONAL CODE HAS BEEN PROVIDED BY COLLABORATORS IN OTHER GROUPS:
     IOWA STATE UNIVERSITY: JOE IVANIC, KLAUS RUEDENBERG
     UNIVERSITY OF TOKYO: KIMIHIKO HIRAO, HARUYUKI NAKANO, TAKAHITO
          NAKAJIMA, TAKAO TSUNEDA, MUNEAKI KAMIYA, SUSUMU YANAGISAWA,
          KIYOSHI YAGI
     UNIVERSITY OF SOUTHERN DENMARK: FRANK JENSEN
     UNIVERSITY OF IOWA: VISVALDAS KAIRYS, HUI LI
     NATIONAL INST. OF STANDARDS AND TECHNOLOGY: WALT STEVENS, DAVID GARMER
     UNIVERSITY OF PISA: BENEDETTA MENNUCCI, JACOPO TOMASI
     UNIVERSITY OF MEMPHIS: HENRY KURTZ, PRAKASHAN KORAMBATH
     UNIVERSITY OF ALBERTA: MARIUSZ KLOBUKOWSKI
     UNIVERSITY OF NEW ENGLAND: MARK SPACKMAN
     MIE UNIVERSITY: HIROAKI UMEDA
     MICHIGAN STATE UNIVERSITY:
          KAROL KOWALSKI, MARTA WLOCH, PIOTR PIECUCH
     UNIVERSITY OF SILESIA: MONIKA MUSIAL, STANISLAW KUCHARSKI
     FACULTES UNIVERSITAIRES NOTRE-DAME DE LA PAIX:
          OLIVIER QUINET, BENOIT CHAMPAGNE
     UNIVERSITY OF CALIFORNIA - SANTA BARBARA: BERNARD KIRTMAN
     INSTITUTE FOR MOLECULAR SCIENCE: KAZUYA ISHIMURA AND SHIGERU NAGASE
     UNIVERSITY OF NOTRE DAME: DAN CHIPMAN
     KYUSHU UNIVERSITY:
          FENG LONG GU, JACEK KORCHOWIEC, MARCIN MAKOWSKI, AND YURIKO AOKI
     PENNSYLVANIA STATE UNIVERSITY:
          TZVETELIN IORDANOV, CHET SWALINA, SHARON HAMMES-SCHIFFER


 PARALLEL VERSION RUNNING ON     8 PROCESSORS IN     1 NODES.

 EXECUTION OF GAMESS BEGUN Tue Sep 19 11:09:13 2017

            ECHO OF THE FIRST FEW INPUT CARDS -
 INPUT CARD> $CONTRL                                                                        
 INPUT CARD>   EXETYP=RUN COORD=UNIQUE  UNITS=ANGS                                          
 INPUT CARD>   RUNTYP=ENERGY SCFTYP=RHF CITYP=NONE                                          
 INPUT CARD>   MAXIT=100                                                                    
 INPUT CARD>   ISPHER=1                                                                     
 INPUT CARD>   MULT=1                                                                       
 INPUT CARD>   ICHARG=1                                                                     
 INPUT CARD>   MPLEVL=0                                                                     
 INPUT CARD> $END                                                                           
 INPUT CARD>                                                                                
 INPUT CARD> $SYSTEM                                                                        
 INPUT CARD>  MWORDS=2000                                                                   
 INPUT CARD> $END                                                                           
 INPUT CARD>                                                                                
 INPUT CARD> $GUESS                                                                         
 INPUT CARD>  GUESS=HUCKEL                                                                  
 INPUT CARD> $END                                                                           
 INPUT CARD>                                                                                
 INPUT CARD> $SCF                                                                           
 INPUT CARD>  DIRSCF=.T. DIIS=.T.                                                           
 INPUT CARD> $END                                                                           
 INPUT CARD>                                                                                
 INPUT CARD> $BASIS                                                                         
 INPUT CARD>  GBASIS=ACCD                                                                   
 INPUT CARD> $END                                                                           
 INPUT CARD>                                                                                
 INPUT CARD> $DATA                                                                          
 INPUT CARD>C3                                                                              
 INPUT CARD>C1                                                                              
 INPUT CARD>H 1.0           0.000000    0.000000    1.639052                                
 INPUT CARD>H 1.0           0.000000    1.184500   -1.203671                                
 INPUT CARD>H 1.0           0.000000   -1.184500   -1.203671                                
 INPUT CARD>H 1.0           0.000000    2.518814    1.575709                                
 INPUT CARD>H 1.0           0.000000   -2.518814    1.575709                                
 INPUT CARD>H 1.0           0.000000    3.543995   -1.323893                                
 INPUT CARD>H 1.0           0.000000   -3.543995   -1.323893                                
 INPUT CARD>H 1.0           0.000000    5.053656    1.372148                                
 INPUT CARD>H 1.0           0.000000   -5.053656    1.372148                                
 INPUT CARD>H 1.0           0.000000    5.885105   -1.598471                                
 INPUT CARD>H 1.0           0.000000   -5.885105   -1.598471                                
 INPUT CARD>H 1.0           0.000000    7.528514    0.857192                                
 INPUT CARD>H 1.0           0.000000   -7.528514    0.857192                                
 INPUT CARD>H 1.0           0.000000    8.044630   -0.778923                                
 INPUT CARD>H 1.0           0.000000   -8.044630   -0.778923                                
 INPUT CARD>C 6.0           0.000000    0.000000    0.553396                                
 INPUT CARD>C 6.0           0.000000    1.212451   -0.115894                                
 INPUT CARD>C 6.0           0.000000   -1.212451   -0.115894                                
 INPUT CARD>C 6.0           0.000000    2.463852    0.491562                                
 INPUT CARD>C 6.0           0.000000   -2.463852    0.491562                                
 INPUT CARD>C 6.0           0.000000    3.632731   -0.239322                                

 ..... DONE SETTING UP THE RUN .....
 2000000000 WORDS OF MEMORY AVAILABLE

     BASIS OPTIONS
     -------------
     GBASIS=ACCD         IGAUSS=       0      POLAR=NONE    
     NDFUNC=       0     NFFUNC=       0     DIFFSP=       F
     NPFUNC=       0      DIFFS=       F


     RUN TITLE
     ---------
 C3                                                                              

 THE POINT GROUP OF THE MOLECULE IS C1      
 THE ORDER OF THE PRINCIPAL AXIS IS     0

 ATOM      ATOMIC                      COORDINATES (BOHR)
           CHARGE         X                   Y                   Z
 H           1.0     0.0000000000        0.0000000000        3.0973591596
 H           1.0     0.0000000000        2.2383804325       -2.2746083694
 H           1.0     0.0000000000       -2.2383804325       -2.2746083694
 H           1.0     0.0000000000        4.7598682740        2.9776582464
 H           1.0     0.0000000000       -4.7598682740        2.9776582464
 H           1.0     0.0000000000        6.6971794519       -2.5017950071
 H           1.0     0.0000000000       -6.6971794519       -2.5017950071
 H           1.0     0.0000000000        9.5500250762        2.5929837346
 H           1.0     0.0000000000       -9.5500250762        2.5929837346
 H           1.0     0.0000000000       11.1212358590       -3.0206721893
 H           1.0     0.0000000000      -11.1212358590       -3.0206721893
 H           1.0     0.0000000000       14.2268285547        1.6198579989
 H           1.0     0.0000000000      -14.2268285547        1.6198579989
 H           1.0     0.0000000000       15.2021463726       -1.4719510355
 H           1.0     0.0000000000      -15.2021463726       -1.4719510355
 C           6.0     0.0000000000        0.0000000000        1.0457668027
 C           6.0     0.0000000000        2.2912001635       -0.2190079036
 C           6.0     0.0000000000       -2.2912001635       -0.2190079036
 C           6.0     0.0000000000        4.6560051543        0.9289174860
 C           6.0     0.0000000000       -4.6560051543        0.9289174860
 C           6.0     0.0000000000        6.8648661771       -0.4522530028
 C           6.0     0.0000000000       -6.8648661771       -0.4522530028
 C           6.0     0.0000000000        9.3023972725        0.5572972013
 C           6.0     0.0000000000       -9.3023972725        0.5572972013
 C           6.0     0.0000000000       11.3829326727       -0.9868810512
 C           6.0     0.0000000000      -11.3829326727       -0.9868810512
 N           7.0     0.0000000000       13.7745812211       -0.2251268364
 N           7.0     0.0000000000      -13.7745812211       -0.2251268364

          INTERNUCLEAR DISTANCES (ANGS.)
          ------------------------------

                    H              H              H              H         

  1  H               0.0000000      3.0796289      3.0796289      2.5196103 *  
  2  H               3.0796289      0.0000000      2.3690000 *    3.0830743    
  3  H               3.0796289      2.3690000 *    0.0000000      4.6302794    
  4  H               2.5196103 *    3.0830743      4.6302794      0.0000000    
  5  H               2.5196103 *    4.6302794      3.0830743      5.0376280    
  6  H               4.6194094      2.3625558 *    4.7300231      3.0754980    
  7  H               4.6194094      4.7300231      2.3625558 *    6.7205167    
  8  H               5.0606992      4.6481407      6.7490321      2.5430024 *  
  9  H               5.0606992      6.7490321      4.6481407      7.5752055    
 10  H               6.7168457      4.7171553      7.0806202      4.6268060    
 11  H               6.7168457      7.0806202      4.7171553      8.9833887    
 12  H               7.5690044      6.6703576      8.9534222      5.0609644    
 13  H               7.5690044      8.9534222      6.6703576     10.0729870    
 14  H               8.4001592      6.8732667      9.2388988      6.0065743    
 15  H               8.4001592      9.2388988      6.8732667     10.8226910    
 16  C               1.0856560 *    2.1190386 *    2.1190386 *    2.7183723 *  
 17  C               2.1330431 *    1.0881360 *    2.6322296 *    2.1373126 *  
 18  C               2.1330431 *    2.6322296 *    1.0881360 *    4.0968109    
 19  C               2.7179588 *    2.1238071 *    4.0229700      1.0855393 *  
 20  C               2.7179588 *    4.0229700      2.1238071 *    5.0992485    
 21  C               4.0896239      2.6313122 *    4.9128081      2.1295888 *  
 22  C               4.0896239      4.9128081      2.6313122 *    6.4137231    
 23  C               5.1028304      4.0273143      6.2882923      2.7237323 *  
 24  C               5.1028304      6.2882923      4.0273143      7.5508505    
 25  C               6.3995926      4.8868331      7.2402280      4.0847052    
 26  C               6.3995926      7.2402280      4.8868331      8.7962502    
 27  N               7.4982381      6.2002843      8.5428176      5.0625113    
 28  N               7.4982381      8.5428176      6.2002843      9.9533676    

                    H              H              H              H         

  1  H               2.5196103 *    4.6194094      4.6194094      5.0606992    
  2  H               4.6302794      2.3625558 *    4.7300231      4.6481407    
  3  H               3.0830743      4.7300231      2.3625558 *    6.7490321    
  4  H               5.0376280      3.0754980      6.7205167      2.5430024 *  
  5  H               0.0000000      6.7205167      3.0754980      7.5752055    
  6  H               6.7205167      0.0000000      7.0879900      3.0899374    
  7  H               3.0754980      7.0879900      0.0000000      9.0104517    
  8  H               7.5752055      3.0899374      9.0104517      0.0000000    
  9  H               2.5430024 *    9.0104517      3.0899374     10.1073120    
 10  H               8.9833887      2.3571570 *    9.4330970      3.0847828    
 11  H               4.6268060      9.4330970      2.3571570 *   11.3349490    
 12  H              10.0729870      4.5424138     11.2852819      2.5278651 *  
 13  H               5.0609644     11.2852819      4.5424138     12.5927035    
 14  H              10.8226910      4.5335094     11.6014319      3.6841596    
 15  H               6.0065743     11.6014319      4.5335094     13.2737411    
 16  C               2.7183723 *    4.0105005      4.0105005      5.1195502    
 17  C               4.0968109      2.6259016 *    4.9074474      4.1193598    
 18  C               2.1373126 *    4.9074474      2.6259016 *    6.4403700    
 19  C               5.0992485      2.1124833 *    6.2761535      2.7354189 *  
 20  C               1.0855393 *    6.2761535      2.1124833 *    7.5689073    
 21  C               6.4137231      1.0881950 *    7.2582154      2.1484561 *  
 22  C               2.1295888 *    7.2582154      1.0881950 *    8.8345999    
 23  C               7.5508505      2.1262922 *    8.6199790      1.0851797 *  
 24  C               2.7237323 *    8.6199790      2.1262922 *   10.0342646    
 25  C               8.7962502      2.6059628 *    9.6011103      2.1282521 *  
 26  C               4.0847052      9.6011103      2.6059628 *   11.2380623    
 27  N               9.9533676      3.9342054     10.8999750      2.6872943 *  
 28  N               5.0625113     10.8999750      3.9342054     12.4326138    

                    H              H              H              H         

  1  H               5.0606992      6.7168457      6.7168457      7.5690044    
  2  H               6.7490321      4.7171553      7.0806202      6.6703576    
  3  H               4.6481407      7.0806202      4.7171553      8.9534222    
  4  H               7.5752055      4.6268060      8.9833887      5.0609644    
  5  H               2.5430024 *    8.9833887      4.6268060     10.0729870    
  6  H               9.0104517      2.3571570 *    9.4330970      4.5424138    
  7  H               3.0899374      9.4330970      2.3571570 *   11.2852819    
  8  H              10.1073120      3.0847828     11.3349490      2.5278651 *  
  9  H               0.0000000     11.3349490      3.0847828     12.5927035    
 10  H              11.3349490      0.0000000     11.7702100      2.9548391 *  
 11  H               3.0847828     11.7702100      0.0000000     13.6365485    
 12  H              12.5927035      2.9548391 *   13.6365485      0.0000000    
 13  H               2.5278651 *   13.6365485      2.9548391 *   15.0570280    
 14  H              13.2737411      2.3098067 *   13.9538230      1.7155897 *  
 15  H               3.6841596     13.9538230      2.3098067 *   15.6588533    
 16  C               5.1195502      6.2661785      6.2661785      7.5346410    
 17  C               6.4403700      4.9022168      7.2507473      6.3905828    
 18  C               4.1193598      7.2507473      4.9022168      8.7949625    
 19  C               7.5689073      4.0091408      8.6065859      5.0778427    
 20  C               2.7354189 *    8.6065859      4.0091408      9.9990531    
 21  C               8.8345999      2.6306795 *    9.6143896      4.0471556    
 22  C               2.1484561 *    9.6143896      2.6306795 *   11.2149781    
 23  C              10.0342646      2.1239753 *   10.9723171      2.6658697 *  
 24  C               1.0851797 *   10.9723171      2.1239753 *   12.4638207    
 25  C              11.2380623      1.0851091 *   11.9572270      2.0414745 *  
 26  C               2.1282521 *   11.9572270      1.0851091 *   13.6221259    
 27  N              12.4326138      2.0395864 *   13.2570971      1.0052274 *  
 28  N               2.6872943 *   13.2570971      2.0395864 *   14.8498387    

                    H              H              H              C         

  1  H               7.5690044      8.4001592      8.4001592      1.0856560 *  
  2  H               8.9534222      6.8732667      9.2388988      2.1190386 *  
  3  H               6.6703576      9.2388988      6.8732667      2.1190386 *  
  4  H              10.0729870      6.0065743     10.8226910      2.7183723 *  
  5  H               5.0609644     10.8226910      6.0065743      2.7183723 *  
  6  H              11.2852819      4.5335094     11.6014319      4.0105005    
  7  H               4.5424138     11.6014319      4.5335094      4.0105005    
  8  H              12.5927035      3.6841596     13.2737411      5.1195502    
  9  H               2.5278651 *   13.2737411      3.6841596      5.1195502    
 10  H              13.6365485      2.3098067 *   13.9538230      6.2661785    
 11  H               2.9548391 *   13.9538230      2.3098067 *    6.2661785    
 12  H              15.0570280      1.7155897 *   15.6588533      7.5346410    
 13  H               0.0000000     15.6588533      1.7155897 *    7.5346410    
 14  H              15.6588533      0.0000000     16.0892600      8.1542103    
 15  H               1.7155897 *   16.0892600      0.0000000      8.1542103    
 16  C               7.5346410      8.1542103      8.1542103      0.0000000    
 17  C               8.7949625      6.8642754      9.2807950      1.3849139 *  
 18  C               6.3905828      9.2807950      6.8642754      1.3849139 *  
 19  C               9.9990531      5.7235667     10.5850048      2.4646278 *  
 20  C               5.0778427     10.5850048      5.7235667      2.4646278 *  
 21  C              11.2149781      4.4447747     11.6898216      3.7182168    
 22  C               4.0471556     11.6898216      4.4447747      3.7182168    
 23  C              12.4638207      3.3015270     13.0116336      4.9293989    
 24  C               2.6658697 *   13.0116336      3.3015270      4.9293989    
 25  C              13.6221259      2.0372765 *   14.0705606      6.1188730    
 26  C               2.0414745 *   14.0705606      2.0372765 *    6.1188730    
 27  N              14.8498387      1.0029986 *   15.3480133      7.3201542    
 28  N               1.0052274 *   15.3480133      1.0029986 *    7.3201542    

                    C              C              C              C         

  1  H               2.1330431 *    2.1330431 *    2.7179588 *    2.7179588 *  
  2  H               1.0881360 *    2.6322296 *    2.1238071 *    4.0229700    
  3  H               2.6322296 *    1.0881360 *    4.0229700      2.1238071 *  
  4  H               2.1373126 *    4.0968109      1.0855393 *    5.0992485    
  5  H               4.0968109      2.1373126 *    5.0992485      1.0855393 *  
  6  H               2.6259016 *    4.9074474      2.1124833 *    6.2761535    
  7  H               4.9074474      2.6259016 *    6.2761535      2.1124833 *  
  8  H               4.1193598      6.4403700      2.7354189 *    7.5689073    
  9  H               6.4403700      4.1193598      7.5689073      2.7354189 *  
 10  H               4.9022168      7.2507473      4.0091408      8.6065859    
 11  H               7.2507473      4.9022168      8.6065859      4.0091408    
 12  H               6.3905828      8.7949625      5.0778427      9.9990531    
 13  H               8.7949625      6.3905828      9.9990531      5.0778427    
 14  H               6.8642754      9.2807950      5.7235667     10.5850048    
 15  H               9.2807950      6.8642754     10.5850048      5.7235667    
 16  C               1.3849139 *    1.3849139 *    2.4646278 *    2.4646278 *  
 17  C               0.0000000      2.4249020 *    1.3910454 *    3.7261517    
 18  C               2.4249020 *    0.0000000      3.7261517      1.3910454 *  
 19  C               1.3910454 *    3.7261517      0.0000000      4.9277040    
 20  C               3.7261517      1.3910454 *    4.9277040      0.0000000    
 21  C               2.4234252 *    4.8467539      1.3785752 *    6.1402374    
 22  C               4.8467539      2.4234252 *    6.1402374      1.3785752 *  
 23  C               3.7328395      6.1488063      2.4666167 *    7.3890863    
 24  C               6.1488063      3.7328395      7.3890863      2.4666167 *  
 25  C               4.8282670      7.2474401      3.7012852      8.5477739    
 26  C               7.2474401      4.8282670      8.5477739      3.7012852    
 27  N               6.0767449      8.5016466      4.8638341      9.7721478    
 28  N               8.5016466      6.0767449      9.7721478      4.8638341    

                    C              C              C              C         

  1  H               4.0896239      4.0896239      5.1028304      5.1028304    
  2  H               2.6313122 *    4.9128081      4.0273143      6.2882923    
  3  H               4.9128081      2.6313122 *    6.2882923      4.0273143    
  4  H               2.1295888 *    6.4137231      2.7237323 *    7.5508505    
  5  H               6.4137231      2.1295888 *    7.5508505      2.7237323 *  
  6  H               1.0881950 *    7.2582154      2.1262922 *    8.6199790    
  7  H               7.2582154      1.0881950 *    8.6199790      2.1262922 *  
  8  H               2.1484561 *    8.8345999      1.0851797 *   10.0342646    
  9  H               8.8345999      2.1484561 *   10.0342646      1.0851797 *  
 10  H               2.6306795 *    9.6143896      2.1239753 *   10.9723171    
 11  H               9.6143896      2.6306795 *   10.9723171      2.1239753 *  
 12  H               4.0471556     11.2149781      2.6658697 *   12.4638207    
 13  H              11.2149781      4.0471556     12.4638207      2.6658697 *  
 14  H               4.4447747     11.6898216      3.3015270     13.0116336    
 15  H              11.6898216      4.4447747     13.0116336      3.3015270    
 16  C               3.7182168      3.7182168      4.9293989      4.9293989    
 17  C               2.4234252 *    4.8467539      3.7328395      6.1488063    
 18  C               4.8467539      2.4234252 *    6.1488063      3.7328395    
 19  C               1.3785752 *    6.1402374      2.4666167 *    7.3890863    
 20  C               6.1402374      1.3785752 *    7.3890863      2.4666167 *  
 21  C               0.0000000      7.2654620      1.3961406 *    8.5720116    
 22  C               7.2654620      0.0000000      8.5720116      1.3961406 *  
 23  C               1.3961406 *    8.5720116      0.0000000      9.8452340    
 24  C               8.5720116      1.3961406 *    9.8452340      0.0000000    
 25  C               2.4075385 *    9.6604635      1.3710812 *   10.9766639    
 26  C               9.6604635      2.4075385 *   10.9766639      1.3710812 *  
 27  N               3.6584388     10.9225873      2.4025240 *   12.2188290    
 28  N              10.9225873      3.6584388     12.2188290      2.4025240 *  

                    C              C              N              N         

  1  H               6.3995926      6.3995926      7.4982381      7.4982381    
  2  H               4.8868331      7.2402280      6.2002843      8.5428176    
  3  H               7.2402280      4.8868331      8.5428176      6.2002843    
  4  H               4.0847052      8.7962502      5.0625113      9.9533676    
  5  H               8.7962502      4.0847052      9.9533676      5.0625113    
  6  H               2.6059628 *    9.6011103      3.9342054     10.8999750    
  7  H               9.6011103      2.6059628 *   10.8999750      3.9342054    
  8  H               2.1282521 *   11.2380623      2.6872943 *   12.4326138    
  9  H              11.2380623      2.1282521 *   12.4326138      2.6872943 *  
 10  H               1.0851091 *   11.9572270      2.0395864 *   13.2570971    
 11  H              11.9572270      1.0851091 *   13.2570971      2.0395864 *  
 12  H               2.0414745 *   13.6221259      1.0052274 *   14.8498387    
 13  H              13.6221259      2.0414745 *   14.8498387      1.0052274 *  
 14  H               2.0372765 *   14.0705606      1.0029986 *   15.3480133    
 15  H              14.0705606      2.0372765 *   15.3480133      1.0029986 *  
 16  C               6.1188730      6.1188730      7.3201542      7.3201542    
 17  C               4.8282670      7.2474401      6.0767449      8.5016466    
 18  C               7.2474401      4.8282670      8.5016466      6.0767449    
 19  C               3.7012852      8.5477739      4.8638341      9.7721478    
 20  C               8.5477739      3.7012852      9.7721478      4.8638341    
 21  C               2.4075385 *    9.6604635      3.6584388     10.9225873    
 22  C               9.6604635      2.4075385 *   10.9225873      3.6584388    
 23  C               1.3710812 *   10.9766639      2.4025240 *   12.2188290    
 24  C              10.9766639      1.3710812 *   12.2188290      2.4025240 *  
 25  C               0.0000000     12.0471780      1.3282509 *   13.3188855    
 26  C              12.0471780      0.0000000     13.3188855      1.3282509 *  
 27  N               1.3282509 *   13.3188855      0.0000000     14.5783900    
 28  N              13.3188855      1.3282509 *   14.5783900      0.0000000    

  * ... LESS THAN  3.000


     ATOMIC BASIS SET
     ----------------
 THE CONTRACTED PRIMITIVE FUNCTIONS HAVE BEEN UNNORMALIZED
 THE CONTRACTED BASIS FUNCTIONS ARE NOW NORMALIZED TO UNITY

  SHELL TYPE  PRIMITIVE        EXPONENT          CONTRACTION COEFFICIENT(S)

 H         

      1   S       1            13.0100000    0.033498726390
      1   S       2             1.9620000    0.234800801174
      1   S       3             0.4446000    0.813682957883

      2   S       4             0.1220000    1.000000000000

      3   P       5             0.7270000    1.000000000000

      4   S       6             0.0297400    1.000000000000

      5   P       7             0.1410000    1.000000000000

 H         

      6   S       8            13.0100000    0.033498726390
      6   S       9             1.9620000    0.234800801174
      6   S      10             0.4446000    0.813682957883

      7   S      11             0.1220000    1.000000000000

      8   P      12             0.7270000    1.000000000000

      9   S      13             0.0297400    1.000000000000

     10   P      14             0.1410000    1.000000000000

 H         

     11   S      15            13.0100000    0.033498726390
     11   S      16             1.9620000    0.234800801174
     11   S      17             0.4446000    0.813682957883

     12   S      18             0.1220000    1.000000000000

     13   P      19             0.7270000    1.000000000000

     14   S      20             0.0297400    1.000000000000

     15   P      21             0.1410000    1.000000000000

 H         

     16   S      22            13.0100000    0.033498726390
     16   S      23             1.9620000    0.234800801174
     16   S      24             0.4446000    0.813682957883

     17   S      25             0.1220000    1.000000000000

     18   P      26             0.7270000    1.000000000000

     19   S      27             0.0297400    1.000000000000

     20   P      28             0.1410000    1.000000000000

 H         

     21   S      29            13.0100000    0.033498726390
     21   S      30             1.9620000    0.234800801174
     21   S      31             0.4446000    0.813682957883

     22   S      32             0.1220000    1.000000000000

     23   P      33             0.7270000    1.000000000000

     24   S      34             0.0297400    1.000000000000

     25   P      35             0.1410000    1.000000000000

 H         

     26   S      36            13.0100000    0.033498726390
     26   S      37             1.9620000    0.234800801174
     26   S      38             0.4446000    0.813682957883

     27   S      39             0.1220000    1.000000000000

     28   P      40             0.7270000    1.000000000000

     29   S      41             0.0297400    1.000000000000

     30   P      42             0.1410000    1.000000000000

 H         

     31   S      43            13.0100000    0.033498726390
     31   S      44             1.9620000    0.234800801174
     31   S      45             0.4446000    0.813682957883

     32   S      46             0.1220000    1.000000000000

     33   P      47             0.7270000    1.000000000000

     34   S      48             0.0297400    1.000000000000

     35   P      49             0.1410000    1.000000000000

 H         

     36   S      50            13.0100000    0.033498726390
     36   S      51             1.9620000    0.234800801174
     36   S      52             0.4446000    0.813682957883

     37   S      53             0.1220000    1.000000000000

     38   P      54             0.7270000    1.000000000000

     39   S      55             0.0297400    1.000000000000

     40   P      56             0.1410000    1.000000000000

 H         

     41   S      57            13.0100000    0.033498726390
     41   S      58             1.9620000    0.234800801174
     41   S      59             0.4446000    0.813682957883

     42   S      60             0.1220000    1.000000000000

     43   P      61             0.7270000    1.000000000000

     44   S      62             0.0297400    1.000000000000

     45   P      63             0.1410000    1.000000000000

 H         

     46   S      64            13.0100000    0.033498726390
     46   S      65             1.9620000    0.234800801174
     46   S      66             0.4446000    0.813682957883

     47   S      67             0.1220000    1.000000000000

     48   P      68             0.7270000    1.000000000000

     49   S      69             0.0297400    1.000000000000

     50   P      70             0.1410000    1.000000000000

 H         

     51   S      71            13.0100000    0.033498726390
     51   S      72             1.9620000    0.234800801174
     51   S      73             0.4446000    0.813682957883

     52   S      74             0.1220000    1.000000000000

     53   P      75             0.7270000    1.000000000000

     54   S      76             0.0297400    1.000000000000

     55   P      77             0.1410000    1.000000000000

 H         

     56   S      78            13.0100000    0.033498726390
     56   S      79             1.9620000    0.234800801174
     56   S      80             0.4446000    0.813682957883

     57   S      81             0.1220000    1.000000000000

     58   P      82             0.7270000    1.000000000000

     59   S      83             0.0297400    1.000000000000

     60   P      84             0.1410000    1.000000000000

 H         

     61   S      85            13.0100000    0.033498726390
     61   S      86             1.9620000    0.234800801174
     61   S      87             0.4446000    0.813682957883

     62   S      88             0.1220000    1.000000000000

     63   P      89             0.7270000    1.000000000000

     64   S      90             0.0297400    1.000000000000

     65   P      91             0.1410000    1.000000000000

 H         

     66   S      92            13.0100000    0.033498726390
     66   S      93             1.9620000    0.234800801174
     66   S      94             0.4446000    0.813682957883

     67   S      95             0.1220000    1.000000000000

     68   P      96             0.7270000    1.000000000000

     69   S      97             0.0297400    1.000000000000

     70   P      98             0.1410000    1.000000000000

 H         

     71   S      99            13.0100000    0.033498726390
     71   S     100             1.9620000    0.234800801174
     71   S     101             0.4446000    0.813682957883

     72   S     102             0.1220000    1.000000000000

     73   P     103             0.7270000    1.000000000000

     74   S     104             0.0297400    1.000000000000

     75   P     105             0.1410000    1.000000000000

 C         

     76   S     106          6665.0000000    0.000691583963
     76   S     107          1000.0000000    0.005325796153
     76   S     108           228.0000000    0.027060721042
     76   S     109            64.7100000    0.101656846141
     76   S     110            21.0600000    0.274574823617
     76   S     111             7.4950000    0.448294318924
     76   S     112             2.7970000    0.284902610715
     76   S     113             0.5215000    0.015194859206

     77   S     114          6665.0000000   -0.000293269653
     77   S     115          1000.0000000   -0.002318035474
     77   S     116           228.0000000   -0.011499786039
     77   S     117            64.7100000   -0.046826727010
     77   S     118            21.0600000   -0.128466168750
     77   S     119             7.4950000   -0.301266272463
     77   S     120             2.7970000   -0.255630702330
     77   S     121             0.5215000    1.093793361012

     78   S     122             0.1596000    1.000000000000

     79   P     123             9.4390000    0.056979251590
     79   P     124             2.0020000    0.313207211501
     79   P     125             0.5456000    0.760376741738

     80   P     126             0.1517000    1.000000000000

     81   D     127             0.5500000    1.000000000000

     82   S     128             0.0469000    1.000000000000

     83   P     129             0.0404100    1.000000000000

     84   D     130             0.1510000    1.000000000000

 C         

     85   S     131          6665.0000000    0.000691583963
     85   S     132          1000.0000000    0.005325796153
     85   S     133           228.0000000    0.027060721042
     85   S     134            64.7100000    0.101656846141
     85   S     135            21.0600000    0.274574823617
     85   S     136             7.4950000    0.448294318924
     85   S     137             2.7970000    0.284902610715
     85   S     138             0.5215000    0.015194859206

     86   S     139          6665.0000000   -0.000293269653
     86   S     140          1000.0000000   -0.002318035474
     86   S     141           228.0000000   -0.011499786039
     86   S     142            64.7100000   -0.046826727010
     86   S     143            21.0600000   -0.128466168750
     86   S     144             7.4950000   -0.301266272463
     86   S     145             2.7970000   -0.255630702330
     86   S     146             0.5215000    1.093793361012

     87   S     147             0.1596000    1.000000000000

     88   P     148             9.4390000    0.056979251590
     88   P     149             2.0020000    0.313207211501
     88   P     150             0.5456000    0.760376741738

     89   P     151             0.1517000    1.000000000000

     90   D     152             0.5500000    1.000000000000

     91   S     153             0.0469000    1.000000000000

     92   P     154             0.0404100    1.000000000000

     93   D     155             0.1510000    1.000000000000

 C         

     94   S     156          6665.0000000    0.000691583963
     94   S     157          1000.0000000    0.005325796153
     94   S     158           228.0000000    0.027060721042
     94   S     159            64.7100000    0.101656846141
     94   S     160            21.0600000    0.274574823617
     94   S     161             7.4950000    0.448294318924
     94   S     162             2.7970000    0.284902610715
     94   S     163             0.5215000    0.015194859206

     95   S     164          6665.0000000   -0.000293269653
     95   S     165          1000.0000000   -0.002318035474
     95   S     166           228.0000000   -0.011499786039
     95   S     167            64.7100000   -0.046826727010
     95   S     168            21.0600000   -0.128466168750
     95   S     169             7.4950000   -0.301266272463
     95   S     170             2.7970000   -0.255630702330
     95   S     171             0.5215000    1.093793361012

     96   S     172             0.1596000    1.000000000000

     97   P     173             9.4390000    0.056979251590
     97   P     174             2.0020000    0.313207211501
     97   P     175             0.5456000    0.760376741738

     98   P     176             0.1517000    1.000000000000

     99   D     177             0.5500000    1.000000000000

    100   S     178             0.0469000    1.000000000000

    101   P     179             0.0404100    1.000000000000

    102   D     180             0.1510000    1.000000000000

 C         

    103   S     181          6665.0000000    0.000691583963
    103   S     182          1000.0000000    0.005325796153
    103   S     183           228.0000000    0.027060721042
    103   S     184            64.7100000    0.101656846141
    103   S     185            21.0600000    0.274574823617
    103   S     186             7.4950000    0.448294318924
    103   S     187             2.7970000    0.284902610715
    103   S     188             0.5215000    0.015194859206

    104   S     189          6665.0000000   -0.000293269653
    104   S     190          1000.0000000   -0.002318035474
    104   S     191           228.0000000   -0.011499786039
    104   S     192            64.7100000   -0.046826727010
    104   S     193            21.0600000   -0.128466168750
    104   S     194             7.4950000   -0.301266272463
    104   S     195             2.7970000   -0.255630702330
    104   S     196             0.5215000    1.093793361012

    105   S     197             0.1596000    1.000000000000

    106   P     198             9.4390000    0.056979251590
    106   P     199             2.0020000    0.313207211501
    106   P     200             0.5456000    0.760376741738

    107   P     201             0.1517000    1.000000000000

    108   D     202             0.5500000    1.000000000000

    109   S     203             0.0469000    1.000000000000

    110   P     204             0.0404100    1.000000000000

    111   D     205             0.1510000    1.000000000000

 C         

    112   S     206          6665.0000000    0.000691583963
    112   S     207          1000.0000000    0.005325796153
    112   S     208           228.0000000    0.027060721042
    112   S     209            64.7100000    0.101656846141
    112   S     210            21.0600000    0.274574823617
    112   S     211             7.4950000    0.448294318924
    112   S     212             2.7970000    0.284902610715
    112   S     213             0.5215000    0.015194859206

    113   S     214          6665.0000000   -0.000293269653
    113   S     215          1000.0000000   -0.002318035474
    113   S     216           228.0000000   -0.011499786039
    113   S     217            64.7100000   -0.046826727010
    113   S     218            21.0600000   -0.128466168750
    113   S     219             7.4950000   -0.301266272463
    113   S     220             2.7970000   -0.255630702330
    113   S     221             0.5215000    1.093793361012

    114   S     222             0.1596000    1.000000000000

    115   P     223             9.4390000    0.056979251590
    115   P     224             2.0020000    0.313207211501
    115   P     225             0.5456000    0.760376741738

    116   P     226             0.1517000    1.000000000000

    117   D     227             0.5500000    1.000000000000

    118   S     228             0.0469000    1.000000000000

    119   P     229             0.0404100    1.000000000000

    120   D     230             0.1510000    1.000000000000

 C         

    121   S     231          6665.0000000    0.000691583963
    121   S     232          1000.0000000    0.005325796153
    121   S     233           228.0000000    0.027060721042
    121   S     234            64.7100000    0.101656846141
    121   S     235            21.0600000    0.274574823617
    121   S     236             7.4950000    0.448294318924
    121   S     237             2.7970000    0.284902610715
    121   S     238             0.5215000    0.015194859206

    122   S     239          6665.0000000   -0.000293269653
    122   S     240          1000.0000000   -0.002318035474
    122   S     241           228.0000000   -0.011499786039
    122   S     242            64.7100000   -0.046826727010
    122   S     243            21.0600000   -0.128466168750
    122   S     244             7.4950000   -0.301266272463
    122   S     245             2.7970000   -0.255630702330
    122   S     246             0.5215000    1.093793361012

    123   S     247             0.1596000    1.000000000000

    124   P     248             9.4390000    0.056979251590
    124   P     249             2.0020000    0.313207211501
    124   P     250             0.5456000    0.760376741738

    125   P     251             0.1517000    1.000000000000

    126   D     252             0.5500000    1.000000000000

    127   S     253             0.0469000    1.000000000000

    128   P     254             0.0404100    1.000000000000

    129   D     255             0.1510000    1.000000000000

 C         

    130   S     256          6665.0000000    0.000691583963
    130   S     257          1000.0000000    0.005325796153
    130   S     258           228.0000000    0.027060721042
    130   S     259            64.7100000    0.101656846141
    130   S     260            21.0600000    0.274574823617
    130   S     261             7.4950000    0.448294318924
    130   S     262             2.7970000    0.284902610715
    130   S     263             0.5215000    0.015194859206

    131   S     264          6665.0000000   -0.000293269653
    131   S     265          1000.0000000   -0.002318035474
    131   S     266           228.0000000   -0.011499786039
    131   S     267            64.7100000   -0.046826727010
    131   S     268            21.0600000   -0.128466168750
    131   S     269             7.4950000   -0.301266272463
    131   S     270             2.7970000   -0.255630702330
    131   S     271             0.5215000    1.093793361012

    132   S     272             0.1596000    1.000000000000

    133   P     273             9.4390000    0.056979251590
    133   P     274             2.0020000    0.313207211501
    133   P     275             0.5456000    0.760376741738

    134   P     276             0.1517000    1.000000000000

    135   D     277             0.5500000    1.000000000000

    136   S     278             0.0469000    1.000000000000

    137   P     279             0.0404100    1.000000000000

    138   D     280             0.1510000    1.000000000000

 C         

    139   S     281          6665.0000000    0.000691583963
    139   S     282          1000.0000000    0.005325796153
    139   S     283           228.0000000    0.027060721042
    139   S     284            64.7100000    0.101656846141
    139   S     285            21.0600000    0.274574823617
    139   S     286             7.4950000    0.448294318924
    139   S     287             2.7970000    0.284902610715
    139   S     288             0.5215000    0.015194859206

    140   S     289          6665.0000000   -0.000293269653
    140   S     290          1000.0000000   -0.002318035474
    140   S     291           228.0000000   -0.011499786039
    140   S     292            64.7100000   -0.046826727010
    140   S     293            21.0600000   -0.128466168750
    140   S     294             7.4950000   -0.301266272463
    140   S     295             2.7970000   -0.255630702330
    140   S     296             0.5215000    1.093793361012

    141   S     297             0.1596000    1.000000000000

    142   P     298             9.4390000    0.056979251590
    142   P     299             2.0020000    0.313207211501
    142   P     300             0.5456000    0.760376741738

    143   P     301             0.1517000    1.000000000000

    144   D     302             0.5500000    1.000000000000

    145   S     303             0.0469000    1.000000000000

    146   P     304             0.0404100    1.000000000000

    147   D     305             0.1510000    1.000000000000

 C         

    148   S     306          6665.0000000    0.000691583963
    148   S     307          1000.0000000    0.005325796153
    148   S     308           228.0000000    0.027060721042
    148   S     309            64.7100000    0.101656846141
    148   S     310            21.0600000    0.274574823617
    148   S     311             7.4950000    0.448294318924
    148   S     312             2.7970000    0.284902610715
    148   S     313             0.5215000    0.015194859206

    149   S     314          6665.0000000   -0.000293269653
    149   S     315          1000.0000000   -0.002318035474
    149   S     316           228.0000000   -0.011499786039
    149   S     317            64.7100000   -0.046826727010
    149   S     318            21.0600000   -0.128466168750
    149   S     319             7.4950000   -0.301266272463
    149   S     320             2.7970000   -0.255630702330
    149   S     321             0.5215000    1.093793361012

    150   S     322             0.1596000    1.000000000000

    151   P     323             9.4390000    0.056979251590
    151   P     324             2.0020000    0.313207211501
    151   P     325             0.5456000    0.760376741738

    152   P     326             0.1517000    1.000000000000

    153   D     327             0.5500000    1.000000000000

    154   S     328             0.0469000    1.000000000000

    155   P     329             0.0404100    1.000000000000

    156   D     330             0.1510000    1.000000000000

 C         

    157   S     331          6665.0000000    0.000691583963
    157   S     332          1000.0000000    0.005325796153
    157   S     333           228.0000000    0.027060721042
    157   S     334            64.7100000    0.101656846141
    157   S     335            21.0600000    0.274574823617
    157   S     336             7.4950000    0.448294318924
    157   S     337             2.7970000    0.284902610715
    157   S     338             0.5215000    0.015194859206

    158   S     339          6665.0000000   -0.000293269653
    158   S     340          1000.0000000   -0.002318035474
    158   S     341           228.0000000   -0.011499786039
    158   S     342            64.7100000   -0.046826727010
    158   S     343            21.0600000   -0.128466168750
    158   S     344             7.4950000   -0.301266272463
    158   S     345             2.7970000   -0.255630702330
    158   S     346             0.5215000    1.093793361012

    159   S     347             0.1596000    1.000000000000

    160   P     348             9.4390000    0.056979251590
    160   P     349             2.0020000    0.313207211501
    160   P     350             0.5456000    0.760376741738

    161   P     351             0.1517000    1.000000000000

    162   D     352             0.5500000    1.000000000000

    163   S     353             0.0469000    1.000000000000

    164   P     354             0.0404100    1.000000000000

    165   D     355             0.1510000    1.000000000000

 C         

    166   S     356          6665.0000000    0.000691583963
    166   S     357          1000.0000000    0.005325796153
    166   S     358           228.0000000    0.027060721042
    166   S     359            64.7100000    0.101656846141
    166   S     360            21.0600000    0.274574823617
    166   S     361             7.4950000    0.448294318924
    166   S     362             2.7970000    0.284902610715
    166   S     363             0.5215000    0.015194859206

    167   S     364          6665.0000000   -0.000293269653
    167   S     365          1000.0000000   -0.002318035474
    167   S     366           228.0000000   -0.011499786039
    167   S     367            64.7100000   -0.046826727010
    167   S     368            21.0600000   -0.128466168750
    167   S     369             7.4950000   -0.301266272463
    167   S     370             2.7970000   -0.255630702330
    167   S     371             0.5215000    1.093793361012

    168   S     372             0.1596000    1.000000000000

    169   P     373             9.4390000    0.056979251590
    169   P     374             2.0020000    0.313207211501
    169   P     375             0.5456000    0.760376741738

    170   P     376             0.1517000    1.000000000000

    171   D     377             0.5500000    1.000000000000

    172   S     378             0.0469000    1.000000000000

    173   P     379             0.0404100    1.000000000000

    174   D     380             0.1510000    1.000000000000

 N         

    175   S     381          9046.0000000    0.000699617413
    175   S     382          1357.0000000    0.005386054630
    175   S     383           309.3000000    0.027391021189
    175   S     384            87.7300000    0.103150591982
    175   S     385            28.5600000    0.278570663317
    175   S     386            10.2100000    0.448294849454
    175   S     387             3.8380000    0.278085928395
    175   S     388             0.7466000    0.015431561233

    176   S     389          9046.0000000   -0.000304990096
    176   S     390          1357.0000000   -0.002408026379
    176   S     391           309.3000000   -0.011944448725
    176   S     392            87.7300000   -0.048925992909
    176   S     393            28.5600000   -0.134472724725
    176   S     394            10.2100000   -0.315112577700
    176   S     395             3.8380000   -0.242857832550
    176   S     396             0.7466000    1.094382206854

    177   S     397             0.2248000    1.000000000000

    178   P     398            13.5500000    0.058905676772
    178   P     399             2.9170000    0.320461106714
    178   P     400             0.7973000    0.753042061792

    179   P     401             0.2185000    1.000000000000

    180   D     402             0.8170000    1.000000000000

    181   S     403             0.0612400    1.000000000000

    182   P     404             0.0561100    1.000000000000

    183   D     405             0.2300000    1.000000000000

 N         

    184   S     406          9046.0000000    0.000699617413
    184   S     407          1357.0000000    0.005386054630
    184   S     408           309.3000000    0.027391021189
    184   S     409            87.7300000    0.103150591982
    184   S     410            28.5600000    0.278570663317
    184   S     411            10.2100000    0.448294849454
    184   S     412             3.8380000    0.278085928395
    184   S     413             0.7466000    0.015431561233

    185   S     414          9046.0000000   -0.000304990096
    185   S     415          1357.0000000   -0.002408026379
    185   S     416           309.3000000   -0.011944448725
    185   S     417            87.7300000   -0.048925992909
    185   S     418            28.5600000   -0.134472724725
    185   S     419            10.2100000   -0.315112577700
    185   S     420             3.8380000   -0.242857832550
    185   S     421             0.7466000    1.094382206854

    186   S     422             0.2248000    1.000000000000

    187   P     423            13.5500000    0.058905676772
    187   P     424             2.9170000    0.320461106714
    187   P     425             0.7973000    0.753042061792

    188   P     426             0.2185000    1.000000000000

    189   D     427             0.8170000    1.000000000000

    190   S     428             0.0612400    1.000000000000

    191   P     429             0.0561100    1.000000000000

    192   D     430             0.2300000    1.000000000000

 TOTAL NUMBER OF BASIS SET SHELLS             =  192
 NUMBER OF CARTESIAN GAUSSIAN BASIS FUNCTIONS =  460
 NOTE: THIS RUN WILL RESTRICT THE MO VARIATION SPACE TO SPHERICAL HARMONICS.
 THE NUMBER OF ORBITALS KEPT IN THE VARIATIONAL SPACE WILL BE PRINTED LATER.
 NUMBER OF ELECTRONS                          =   94
 CHARGE OF MOLECULE                           =    1
 SPIN MULTIPLICITY                            =    1
 NUMBER OF OCCUPIED ORBITALS (ALPHA)          =   47
 NUMBER OF OCCUPIED ORBITALS (BETA )          =   47
 TOTAL NUMBER OF ATOMS                        =   28
 THE NUCLEAR REPULSION ENERGY IS      626.2518030069

     $CONTRL OPTIONS
     ---------------
 SCFTYP=RHF          RUNTYP=ENERGY       EXETYP=RUN     
 MPLEVL=       0     CITYP =NONE         CCTYP =NONE         VBTYP =NONE    
 MULT  =       1     ICHARG=       1     NZVAR =       0     COORD =UNIQUE  
 PP    =NONE         RELWFN=NONE         LOCAL =NONE         NUMGRD=       F
 ISPHER=       1     NOSYM =       0     MAXIT =     100     UNITS =ANGS    
 PLTORB=       F     MOLPLT=       F     AIMPAC=       F     FRIEND=        
 NPRINT=       7     IREST =       0     GEOM  =INPUT   
 NORMF =       0     NORMP =       0     ITOL  =      20     ICUT  =       9
 INTTYP=BEST         GRDTYP=BEST         QMTTOL= 1.0E-06

     $SYSTEM OPTIONS
     ---------------
  REPLICATED MEMORY=  2000000000 WORDS (ON EVERY NODE).
 DISTRIBUTED MEMDDI=           0 MILLION WORDS IN AGGREGATE,
 MEMDDI DISTRIBUTED OVER   8 PROCESSORS IS           0 WORDS/PROCESSOR.
 TOTAL MEMORY REQUESTED ON EACH PROCESSOR=  2000000000 WORDS.
 TIMLIM=      525600.00 MINUTES, OR   365.00 DAYS.
 PARALL= T  BALTYP=  NXTVAL  KDIAG=    0  COREFL= F

          ----------------
          PROPERTIES INPUT
          ----------------

     MOMENTS            FIELD           POTENTIAL          DENSITY
 IEMOM =       1   IEFLD =       0   IEPOT =       0   IEDEN =       0
 WHERE =COMASS     WHERE =NUCLEI     WHERE =NUCLEI     WHERE =NUCLEI  
 OUTPUT=BOTH       OUTPUT=BOTH       OUTPUT=BOTH       OUTPUT=BOTH    
 IEMINT=       0   IEFINT=       0                     IEDINT=       0
                                                       MORB  =       0
          EXTRAPOLATION IN EFFECT
          DIIS IN EFFECT
 ORBITAL PRINTING OPTION: NPREO=   1 460   2   1

     -------------------------------
     INTEGRAL TRANSFORMATION OPTIONS
     -------------------------------
     NWORD  =       0     CUTOFF = 1.0E-09
     MPTRAN =       0     DIRTRF =       T
     AOINTS =DUP     

          ----------------------
          INTEGRAL INPUT OPTIONS
          ----------------------
 NOPK  =       1 NORDER=       0 SCHWRZ=       T

     ------------------------------------------
     THE POINT GROUP IS C1 , NAXIS= 0, ORDER= 1
     ------------------------------------------

 -- VARIATIONAL SPACE WILL BE RESTRICTED TO PURE SPHERICAL HARMONICS ONLY --
 AFTER EXCLUDING CONTAMINANT COMBINATIONS FROM THE CARTESIAN GAUSSIAN BASIS
 SET, THE NUMBER OF SPHERICAL HARMONICS KEPT IN THE VARIATION SPACE IS  434

     DIMENSIONS OF THE SYMMETRY SUBSPACES ARE
 A   =  434

 ..... DONE SETTING UP THE RUN .....
 ON NODE 0, STEP CPU TIME =     0.09 TOTAL CPU TIME =        0.1 (    0.0 MIN)
 TOTAL WALL CLOCK TIME=        0.0 SECONDS, CPU UTILIZATION IS 100.00%

          ********************
          1 ELECTRON INTEGRALS
          ********************
 ...... END OF ONE-ELECTRON INTEGRALS ......
 ON NODE 0, STEP CPU TIME =     0.03 TOTAL CPU TIME =        0.1 (    0.0 MIN)
 TOTAL WALL CLOCK TIME=        0.0 SECONDS, CPU UTILIZATION IS 100.00%

          -------------
          GUESS OPTIONS
          -------------
          GUESS =HUCKEL            NORB  =       0          NORDER=       0
          MIX   =       F          PRTMO =       F          PUNMO =       F
          TOLZ  = 1.0E-08          TOLE  = 1.0E-05
          SYMDEN=       F          PURIFY=       F

 INITIAL GUESS ORBITALS GENERATED BY HUCKEL   ROUTINE.
 HUCKEL GUESS REQUIRES   1561848 WORDS.

 STATISTICS FOR GENERATION OF SYMMETRY ORBITAL -Q- MATRIX
 NUMBER OF CARTESIAN ATOMIC ORBITALS=        460
 NUMBER OF SPHERICAL CONTAMINANTS DROPPED=    26
 NUMBER OF LINEARLY DEPENDENT MOS DROPPED=     0
 TOTAL NUMBER OF MOS IN VARIATION SPACE=     434

                    * * * * * WARNING * * * * *
 POSSIBLE LINEAR DEPENDENCE PROBLEMS DETECTED, INPUT QMTTOL= 1.0E-06,
 WITH     9 OVERLAP EIGENVALUES LYING BETWEEN 1.0E-05 AND QMTTOL.
 IF YOU EXPERIENCE SCF CONVERGENCE DIFFICULTIES WITH THE DENSITY ALMOST BUT
 NOT QUITE CONVERGED, YOU MAY NEED TO LOOSEN -QMTTOL- BY A FACTOR 5 TO 10.

 SYMMETRIES FOR INITIAL GUESS ORBITALS FOLLOW.   BOTH SET(S).
    47 ORBITALS ARE OCCUPIED (   13 CORE ORBITALS).
    14=A       15=A       16=A       17=A       18=A       19=A       20=A   
    21=A       22=A       23=A       24=A       25=A       26=A       27=A   
    28=A       29=A       30=A       31=A       32=A       33=A       34=A   
    35=A       36=A       37=A       38=A       39=A       40=A       41=A   
    42=A       43=A       44=A       45=A       46=A       47=A       48=A   
    49=A       50=A       51=A       52=A       53=A       54=A       55=A   
    56=A       57=A   
 ...... END OF INITIAL ORBITAL SELECTION ......
 ON NODE 0, STEP CPU TIME =     1.06 TOTAL CPU TIME =        1.2 (    0.0 MIN)
 TOTAL WALL CLOCK TIME=        0.0 SECONDS, CPU UTILIZATION IS 100.00%

                    ----------------------
                    AO INTEGRAL TECHNOLOGY
                    ----------------------
     S,P,L SHELL ROTATED AXIS INTEGRALS, REPROGRAMMED BY
        KAZUYA ISHIMURA (IMS) AND JOSE SIERRA (SYNSTAR).
     S,P,D,L SHELL ROTATED AXIS INTEGRALS PROGRAMMED BY
        KAZUYA ISHIMURA (INSTITUTE FOR MOLECULAR SCIENCE).
     S,P,D,F,G SHELL TO TOTAL QUARTET ANGULAR MOMENTUM SUM 5,
        ERIC PROGRAM BY GRAHAM FLETCHER (ELORET AND NASA ADVANCED
        SUPERCOMPUTING DIVISION, AMES RESEARCH CENTER).
     S,P,D,F,G,L SHELL GENERAL RYS QUADRATURE PROGRAMMED BY
        MICHEL DUPUIS (PACIFIC NORTHWEST NATIONAL LABORATORY).

          --------------------
          2 ELECTRON INTEGRALS
          --------------------

 DIRECT SCF METHOD SKIPS INTEGRAL STORAGE ON DISK.
 DIRECT TRANSFORMATION SKIPS AO INTEGRAL STORAGE ON DISK.
  ...... END OF TWO-ELECTRON INTEGRALS .....
 ON NODE 0, STEP CPU TIME =     0.00 TOTAL CPU TIME =        1.2 (    0.0 MIN)
 TOTAL WALL CLOCK TIME=        0.0 SECONDS, CPU UTILIZATION IS 100.00%

          --------------------------
                 RHF SCF CALCULATION
          --------------------------

     NUCLEAR ENERGY =       626.2518030069
     MAXIT =  100     NPUNCH=    2
     EXTRAP=T  DAMP=F  SHIFT=F  RSTRCT=F  DIIS=T  DEM=F  SOSCF=F
     DENSITY MATRIX CONV=  2.00E-05
     MEMORY REQUIRED FOR RHF STEP=   1575482 WORDS.

 DIRECT SCF CALCULATION, SCHWRZ=T   FDIFF=T,  DIRTHR=  0.00E+00 NITDIR=10
 SCHWARZ INEQUALITY OVERHEAD:     88300 INTEGRALS, T=        0.01

                                                                                   NONZERO     BLOCKS
 ITER EX DEM     TOTAL ENERGY        E CHANGE  DENSITY CHANGE    DIIS ERROR      INTEGRALS    SKIPPED
          * * *   INITIATING DIIS PROCEDURE   * * *
   1  0  0     -532.4754664310  -532.4754664310   9.375780353   0.438443388     1278028881   81486705
   2  1  0     -533.8670053283    -1.3915388973   0.716126184   0.107387020     1278771626   81832076
   3  2  0     -533.9652343550    -0.0982290267   0.248215779   0.033915221     1265837139   86997769
   4  3  0     -533.9988800079    -0.0336456529   0.220882539   0.008256869     1248610029   90513284
   5  4  0     -534.0010882693    -0.0022082614   0.041290273   0.003967200     1240215194   91878830
   6  5  0     -534.0014803941    -0.0003921248   0.024565976   0.001645799     1210309911   95838201
   7  6  0     -534.0015597146    -0.0000793205   0.009702296   0.000562091     1184388788   98482063
   8  7  0     -534.0015719650    -0.0000122505   0.002304995   0.000122837     1154151385  101240006
   9  8  0     -534.0015729428    -0.0000009778   0.000719695   0.000028573     1115806171  104420762
  10  9  0     -534.0015729810    -0.0000000382   0.000166670   0.000012674     1038180121  109907740
  11 10  0     -534.0015729836    -0.0000000025   0.000178139   0.000002855      994931486  113186542
  12 11  0     -534.0015729796     0.0000000040   0.000194627   0.000001605      993066021  113258696
  13 12  0     -534.0015729870    -0.0000000075   0.000256645   0.000000497      971328754  114820088
  14 13  0     -534.0015729841     0.0000000029   0.000142549   0.000000659     1005493971  112372751
  15 14  0     -534.0015729869    -0.0000000028   0.000047036   0.000000832      976116335  114289182
  16 15  0     -534.0015729906    -0.0000000036   0.000097483   0.000001501      927212159  117596732
  17 16  0     -534.0015729900     0.0000000006   0.000134781   0.000001097      964299413  115180982
  18 17  0     -534.0015729841     0.0000000059   0.000080288   0.000000733      943402626  116418167
  19 18  0     -534.0015729792     0.0000000049   0.000069251   0.000000622      935717666  116991088
  20 19  0     -534.0015729733     0.0000000059   0.000051555   0.000000540      907152025  118591096
  21 20  0     -534.0015729709     0.0000000024   0.000003761   0.000000834      896185936  119440592
  22 21  0     -534.0015729623     0.0000000087   0.000024852   0.000001152      729064041  130444480

          ----------------
          ENERGY CONVERGED
          ----------------
     TIME TO FORM FOCK OPERATORS=     403.1 SECONDS (      18.3 SEC/ITER)
     FOCK TIME ON FIRST ITERATION=      24.8, LAST ITERATION=      11.9
     TIME TO SOLVE SCF EQUATIONS=       5.7 SECONDS (       0.3 SEC/ITER)

 FINAL RHF ENERGY IS     -534.0015729623 AFTER  22 ITERATIONS

          ------------
          EIGENVECTORS
          ------------

                      1          2          3          4          5
                  -15.7217   -15.7217   -11.4378   -11.4378   -11.3921
                     A          A          A          A          A   
    1  H  1  S    0.000000   0.000010   0.000000   0.000017   0.000000
    2  H  1  S    0.000015   0.001947   0.000001   0.000920  -0.000001
    3  H  1  X    0.000000   0.000000   0.000000   0.000000   0.000000
    4  H  1  Y   -0.000009   0.000000   0.000051   0.000000   0.000052
    5  H  1  Z    0.000000   0.000009   0.000000  -0.000003   0.000000
    6  H  1  S   -0.000009  -0.001164  -0.000003  -0.002690   0.000003
    7  H  1  X    0.000000   0.000000   0.000000   0.000000   0.000000
    8  H  1  Y   -0.000054   0.000000   0.001862  -0.000002   0.002384
    9  H  1  Z   -0.000004  -0.000452   0.000000  -0.000300   0.000000
   10  H  2  S    0.000011  -0.000004  -0.000010   0.000014  -0.000040
   11  H  2  S   -0.000294  -0.001284  -0.000236   0.000728   0.001179
   12  H  2  X    0.000000   0.000000   0.000000   0.000000   0.000000
   13  H  2  Y    0.000014   0.000016   0.000044   0.000006  -0.000022
   14  H  2  Z   -0.000001   0.000004  -0.000004   0.000008   0.000007
   15  H  2  S   -0.001705  -0.000683  -0.000585   0.000200   0.004588
   16  H  2  X    0.000000   0.000000   0.000000   0.000000   0.000000
   17  H  2  Y   -0.000430  -0.000115   0.002682   0.000806   0.002903
   18  H  2  Z   -0.000185  -0.000339   0.000026   0.000139   0.000192
   19  H  3  S   -0.000011  -0.000004   0.000010   0.000014   0.000040
   20  H  3  S    0.000273  -0.001288   0.000238   0.000728  -0.001175
   21  H  3  X    0.000000   0.000000   0.000000   0.000000   0.000000
   22  H  3  Y    0.000014  -0.000016   0.000044  -0.000007  -0.000022
   23  H  3  Z    0.000001   0.000004   0.000004   0.000008  -0.000007
   24  H  3  S    0.001694  -0.000710   0.000586   0.000198  -0.004582
   25  H  3  X    0.000000   0.000000   0.000000   0.000000   0.000000
   26  H  3  Y   -0.000428   0.000122   0.002680  -0.000813   0.002903
   27  H  3  Z    0.000179  -0.000341  -0.000026   0.000139  -0.000190
   28  H  4  S    0.000016  -0.000002   0.000010   0.000018  -0.000018
   29  H  4  S    0.002019   0.001187  -0.001293  -0.000668   0.001997
   30  H  4  X    0.000000   0.000000   0.000000   0.000000   0.000000
   31  H  4  Y   -0.000009  -0.000007   0.000033   0.000020   0.000035
   32  H  4  Z    0.000011   0.000010  -0.000027  -0.000021  -0.000051
   33  H  4  S   -0.000484   0.000623   0.000848   0.002944   0.000006
   34  H  4  X    0.000000   0.000000   0.000000   0.000000   0.000000
   35  H  4  Y    0.000192   0.000277   0.001842   0.000899   0.001844
   36  H  4  Z   -0.000513  -0.000364   0.000160   0.000066  -0.000979
   37  H  5  S   -0.000016  -0.000001  -0.000010   0.000018   0.000018
   38  H  5  S   -0.002000   0.001219   0.001291  -0.000671  -0.001995
   39  H  5  X    0.000000   0.000000   0.000000   0.000000   0.000000
   40  H  5  Y   -0.000009   0.000007   0.000033  -0.000020   0.000035
   41  H  5  Z   -0.000011   0.000010   0.000027  -0.000021   0.000051
   42  H  5  S    0.000494   0.000615  -0.000840   0.002946  -0.000009
   43  H  5  X    0.000000   0.000000   0.000000   0.000000   0.000000
   44  H  5  Y    0.000188  -0.000280   0.001840  -0.000903   0.001843
   45  H  5  Z    0.000508  -0.000372  -0.000160   0.000067   0.000977
   46  H  6  S   -0.000015  -0.000015  -0.000011  -0.000005   0.000191
   47  H  6  S   -0.002268  -0.001859   0.001332   0.001415  -0.002436
   48  H  6  X    0.000000   0.000000   0.000000   0.000000   0.000000
   49  H  6  Y    0.000040   0.000044  -0.000012  -0.000020   0.000024
   50  H  6  Z   -0.000019  -0.000018   0.000020   0.000022  -0.000091
   51  H  6  S    0.002208   0.001456   0.001194   0.001144  -0.006669
   52  H  6  X    0.000000   0.000000   0.000000   0.000000   0.000000
   53  H  6  Y   -0.000288  -0.000239   0.002520   0.001643   0.001253
   54  H  6  Z   -0.000475  -0.000344   0.000289   0.000307  -0.000305
   55  H  7  S    0.000015  -0.000015   0.000011  -0.000005  -0.000190
   56  H  7  S    0.002239  -0.001895  -0.001328   0.001418   0.002434
   57  H  7  X    0.000000   0.000000   0.000000   0.000000   0.000000
   58  H  7  Y    0.000040  -0.000044  -0.000012   0.000020   0.000024
   59  H  7  Z    0.000019  -0.000018  -0.000020   0.000022   0.000091
   60  H  7  S   -0.002185   0.001491  -0.001192   0.001147   0.006657
   61  H  7  X    0.000000   0.000000   0.000000   0.000000   0.000000
   62  H  7  Y   -0.000284   0.000243   0.002516  -0.001649   0.001253
   63  H  7  Z    0.000469  -0.000351  -0.000288   0.000308   0.000305
   64  H  8  S   -0.000065  -0.000061   0.000083   0.000091  -0.000041
   65  H  8  S   -0.002536  -0.002074   0.002284   0.002373  -0.001489
   66  H  8  X    0.000000   0.000000   0.000000   0.000000   0.000000
   67  H  8  Y    0.000000  -0.000003   0.000034   0.000033   0.000016
   68  H  8  Z   -0.000002   0.000000  -0.000109  -0.000107  -0.000077
   69  H  8  S   -0.000184  -0.001017  -0.000256  -0.000265   0.000980
   70  H  8  X    0.000000   0.000000   0.000000   0.000000   0.000000
   71  H  8  Y    0.000301   0.000386   0.001792   0.001355   0.000052
   72  H  8  Z    0.000569   0.000452  -0.001013  -0.000973   0.000013
   73  H  9  S    0.000064  -0.000062  -0.000083   0.000092   0.000041
   74  H  9  S    0.002503  -0.002114  -0.002278   0.002379   0.001487
   75  H  9  X    0.000000   0.000000   0.000000   0.000000   0.000000
   76  H  9  Y    0.000000   0.000003   0.000034  -0.000033   0.000016
   77  H  9  Z    0.000002   0.000000   0.000109  -0.000107   0.000077
   78  H  9  S    0.000168  -0.001020   0.000255  -0.000266  -0.000975
   79  H  9  X    0.000000   0.000000   0.000000   0.000000   0.000000
   80  H  9  Y    0.000295  -0.000391   0.001788  -0.001360   0.000052
   81  H  9  Z   -0.000561   0.000461   0.001010  -0.000976  -0.000013
   82  H 10  S   -0.000193  -0.000186   0.000284   0.000280  -0.000034
   83  H 10  S    0.002594   0.002624   0.002393   0.002565   0.005059
   84  H 10  X    0.000000   0.000000   0.000000   0.000000   0.000000
   85  H 10  Y   -0.000032  -0.000031  -0.000014  -0.000018   0.000083
   86  H 10  Z   -0.000104  -0.000098  -0.000067  -0.000077  -0.000040
   87  H 10  S   -0.000132  -0.000350  -0.002323  -0.001049   0.001268
   88  H 10  X    0.000000   0.000000   0.000000   0.000000   0.000000
   89  H 10  Y    0.000186   0.000309   0.001706   0.001496   0.000444
   90  H 10  Z    0.000849   0.000855   0.000852   0.000853   0.001450
   91  H 11  S    0.000190  -0.000189  -0.000283   0.000280   0.000034
   92  H 11  S   -0.002553   0.002664  -0.002387   0.002571  -0.005049
   93  H 11  X    0.000000   0.000000   0.000000   0.000000   0.000000
   94  H 11  Y   -0.000032   0.000031  -0.000014   0.000018   0.000083
   95  H 11  Z    0.000103  -0.000100   0.000067  -0.000078   0.000040
   96  H 11  S    0.000126  -0.000352   0.002321  -0.001055  -0.001264
   97  H 11  X    0.000000   0.000000   0.000000   0.000000   0.000000
   98  H 11  Y    0.000181  -0.000311   0.001703  -0.001500   0.000443
   99  H 11  Z   -0.000835   0.000869  -0.000850   0.000855  -0.001447
  100  H 12  S    0.000156   0.000146  -0.000148  -0.000136  -0.000012
  101  H 12  S    0.002417   0.002138  -0.001090  -0.000658  -0.001603
  102  H 12  X    0.000000   0.000000   0.000000   0.000000   0.000000
  103  H 12  Y    0.000024   0.000023   0.000003   0.000000  -0.000027
  104  H 12  Z    0.000202   0.000200  -0.000154  -0.000165  -0.000022
  105  H 12  S   -0.000597  -0.000437  -0.000621  -0.000629   0.000488
  106  H 12  X    0.000000   0.000000   0.000000   0.000000   0.000000
  107  H 12  Y   -0.000202  -0.000152   0.000471   0.000415   0.000329
  108  H 12  Z   -0.000686  -0.000634   0.000176   0.000125   0.000515
  109  H 13  S   -0.000154   0.000149   0.000147  -0.000136   0.000012
  110  H 13  S   -0.002383   0.002175   0.001089  -0.000661   0.001600
  111  H 13  X    0.000000   0.000000   0.000000   0.000000   0.000000
  112  H 13  Y    0.000024  -0.000023   0.000003   0.000000  -0.000027
  113  H 13  Z   -0.000198   0.000203   0.000153  -0.000165   0.000022
  114  H 13  S    0.000590  -0.000446   0.000619  -0.000631  -0.000488
  115  H 13  X    0.000000   0.000000   0.000000   0.000000   0.000000
  116  H 13  Y   -0.000200   0.000155   0.000470  -0.000416   0.000329
  117  H 13  Z    0.000676  -0.000645  -0.000176   0.000125  -0.000514
  118  H 14  S    0.000108   0.000094  -0.000185  -0.000173  -0.000006
  119  H 14  S    0.003118   0.002733  -0.000110   0.000382  -0.000373
  120  H 14  X    0.000000   0.000000   0.000000   0.000000   0.000000
  121  H 14  Y    0.000147   0.000152  -0.000126  -0.000133   0.000007
  122  H 14  Z   -0.000165  -0.000166   0.000100   0.000105   0.000011
  123  H 14  S   -0.000573  -0.000515  -0.000497  -0.000723  -0.000589
  124  H 14  X    0.000000   0.000000   0.000000   0.000000   0.000000
  125  H 14  Y   -0.000696  -0.000626   0.000018  -0.000087   0.000112
  126  H 14  Z    0.000624   0.000585  -0.000003   0.000048   0.000061
  127  H 15  S   -0.000106   0.000096   0.000185  -0.000173   0.000006
  128  H 15  S   -0.003074   0.002782   0.000111   0.000382   0.000373
  129  H 15  X    0.000000   0.000000   0.000000   0.000000   0.000000
  130  H 15  Y    0.000145  -0.000154  -0.000125   0.000133   0.000007
  131  H 15  Z    0.000163  -0.000168  -0.000099   0.000105  -0.000011
  132  H 15  S    0.000565  -0.000524   0.000495  -0.000724   0.000588
  133  H 15  X    0.000000   0.000000   0.000000   0.000000   0.000000
  134  H 15  Y   -0.000686   0.000636   0.000019   0.000087   0.000112
  135  H 15  Z   -0.000615   0.000595   0.000003   0.000048  -0.000060
  136  C 16  S    0.000000  -0.000025   0.000000  -0.000097   0.000000
  137  C 16  S    0.000000  -0.000039   0.000000  -0.000163   0.000000
  138  C 16  S    0.000021   0.002653   0.000018   0.015638  -0.000004
  139  C 16  X    0.000000   0.000000   0.000000   0.000000   0.000000
  140  C 16  Y    0.000012   0.000000  -0.000019   0.000000  -0.000123
  141  C 16  Z    0.000000   0.000001   0.000000   0.000017   0.000000
  142  C 16  X    0.000000   0.000000   0.000000   0.000000   0.000000
  143  C 16  Y   -0.001219   0.000009   0.041386  -0.000052   0.060696
  144  C 16  Z   -0.000013  -0.001666  -0.000008  -0.006816  -0.000001
  145  C 16 XX    0.000000  -0.000027   0.000000  -0.000011   0.000000
  146  C 16 YY    0.000000   0.000020   0.000000   0.000009   0.000000
  147  C 16 ZZ    0.000000   0.000007   0.000000   0.000002   0.000000
  148  C 16 XY    0.000000   0.000000   0.000000   0.000000   0.000000
  149  C 16 XZ    0.000000   0.000000   0.000000   0.000000   0.000000
  150  C 16 YZ    0.000004   0.000000  -0.000059   0.000000  -0.000083
  151  C 16  S   -0.000058  -0.007328  -0.000010  -0.007194  -0.000008
  152  C 16  X    0.000000   0.000000   0.000000   0.000000   0.000000
  153  C 16  Y   -0.014787   0.000117   0.020050  -0.000026  -0.014205
  154  C 16  Z   -0.000001  -0.000166   0.000004   0.003069   0.000001
  155  C 16 XX    0.000000  -0.000012   0.000000   0.000226   0.000000
  156  C 16 YY    0.000002   0.000226  -0.000002  -0.001731  -0.000001
  157  C 16 ZZ   -0.000002  -0.000214   0.000002   0.001505   0.000001
  158  C 16 XY    0.000000   0.000000   0.000000   0.000000   0.000000
  159  C 16 XZ    0.000000   0.000000   0.000000   0.000000   0.000000
  160  C 16 YZ    0.000433  -0.000003  -0.011628   0.000014  -0.016795
  161  C 17  S    0.000006   0.000038  -0.000061  -0.000129   0.001049
  162  C 17  S    0.000011   0.000065  -0.000081  -0.000193  -0.000147
  163  C 17  S   -0.000031  -0.000731   0.002078   0.014075  -0.010836
  164  C 17  X    0.000000   0.000000   0.000000   0.000000   0.000000
  165  C 17  Y   -0.000007   0.000002  -0.000015  -0.000011  -0.000075
  166  C 17  Z    0.000003   0.000003  -0.000009  -0.000021  -0.000011
  167  C 17  X    0.000000   0.000000   0.000000   0.000000   0.000000
  168  C 17  Y   -0.001210   0.000780   0.042152   0.013662   0.055521
  169  C 17  Z   -0.000479  -0.000872   0.000390   0.006279  -0.004736
  170  C 17 XX   -0.000003   0.000003   0.000002  -0.000019  -0.000039
  171  C 17 YY    0.000000  -0.000005   0.000003   0.000017   0.000047
  172  C 17 ZZ    0.000003   0.000001  -0.000004   0.000002  -0.000009
  173  C 17 XY    0.000000   0.000000   0.000000   0.000000   0.000000
  174  C 17 XZ    0.000000   0.000000   0.000000   0.000000   0.000000
  175  C 17 YZ    0.000001   0.000004   0.000045   0.000015   0.000058
  176  C 17  S    0.005170   0.000835   0.005407   0.003374   0.008189
  177  C 17  X    0.000000   0.000000   0.000000   0.000000   0.000000
  178  C 17  Y    0.006932  -0.000255  -0.005870  -0.005405   0.026675
  179  C 17  Z    0.002798  -0.000038  -0.001204   0.001367   0.006298
  180  C 17 XX    0.000061   0.000210  -0.000170   0.000112  -0.000364
  181  C 17 YY    0.000104  -0.000478   0.000254  -0.001386   0.002087
  182  C 17 ZZ   -0.000164   0.000268  -0.000084   0.001274  -0.001723
  183  C 17 XY    0.000000   0.000000   0.000000   0.000000   0.000000
  184  C 17 XZ    0.000000   0.000000   0.000000   0.000000   0.000000
  185  C 17 YZ   -0.000575   0.000356   0.012867   0.004077   0.015105
  186  C 18  S   -0.000005   0.000039   0.000060  -0.000130  -0.001049
  187  C 18  S   -0.000010   0.000065   0.000080  -0.000193   0.000146
  188  C 18  S    0.000020  -0.000731  -0.002045   0.014079   0.010845
  189  C 18  X    0.000000   0.000000   0.000000   0.000000   0.000000
  190  C 18  Y   -0.000007  -0.000002  -0.000015   0.000011  -0.000075
  191  C 18  Z   -0.000003   0.000004   0.000009  -0.000021   0.000011
  192  C 18  X    0.000000   0.000000   0.000000   0.000000   0.000000
  193  C 18  Y   -0.001222  -0.000762   0.042120  -0.013767   0.055519
  194  C 18  Z    0.000465  -0.000879  -0.000375   0.006279   0.004744
  195  C 18 XX    0.000003   0.000003  -0.000002  -0.000019   0.000039
  196  C 18 YY    0.000000  -0.000005  -0.000003   0.000017  -0.000047
  197  C 18 ZZ   -0.000003   0.000001   0.000004   0.000002   0.000009
  198  C 18 XY    0.000000   0.000000   0.000000   0.000000   0.000000
  199  C 18 XZ    0.000000   0.000000   0.000000   0.000000   0.000000
  200  C 18 YZ    0.000001  -0.000004   0.000045  -0.000015   0.000058
  201  C 18  S   -0.005155   0.000916  -0.005398   0.003386  -0.008161
  202  C 18  X    0.000000   0.000000   0.000000   0.000000   0.000000
  203  C 18  Y    0.006935   0.000144  -0.005856   0.005423   0.026667
  204  C 18  Z   -0.002798   0.000006   0.001207   0.001364  -0.006291
  205  C 18 XX   -0.000057   0.000211   0.000170   0.000112   0.000363
  206  C 18 YY   -0.000111  -0.000476  -0.000257  -0.001385  -0.002087
  207  C 18 ZZ    0.000168   0.000265   0.000087   0.001274   0.001724
  208  C 18 XY    0.000000   0.000000   0.000000   0.000000   0.000000
  209  C 18 XZ    0.000000   0.000000   0.000000   0.000000   0.000000
  210  C 18 YZ   -0.000581  -0.000347   0.012858  -0.004109   0.015105
  211  C 19  S   -0.000007  -0.000013  -0.000037  -0.000121   0.007755
  212  C 19  S   -0.000009  -0.000019  -0.000060  -0.000197   0.000109
  213  C 19  S    0.001521   0.001704   0.001485   0.010615  -0.009596
  214  C 19  X    0.000000   0.000000   0.000000   0.000000   0.000000
  215  C 19  Y    0.000016   0.000009  -0.000061  -0.000052   0.000093
  216  C 19  Z   -0.000008  -0.000009   0.000034   0.000042  -0.000049
  217  C 19  X    0.000000   0.000000   0.000000   0.000000   0.000000
  218  C 19  Y   -0.000870   0.000539   0.044383   0.024413   0.046702
  219  C 19  Z   -0.001210  -0.001521  -0.003368  -0.005993  -0.000999
  220  C 19 XX   -0.000007  -0.000012   0.000022   0.000018   0.000124
  221  C 19 YY   -0.000003   0.000001  -0.000003  -0.000006  -0.000040
  222  C 19 ZZ    0.000011   0.000010  -0.000018  -0.000012  -0.000085
  223  C 19 XY    0.000000   0.000000   0.000000   0.000000   0.000000
  224  C 19 XZ    0.000000   0.000000   0.000000   0.000000   0.000000
  225  C 19 YZ   -0.000016  -0.000012  -0.000038  -0.000011  -0.000026
  226  C 19  S   -0.009196  -0.002478   0.003013   0.010861   0.008985
  227  C 19  X    0.000000   0.000000   0.000000   0.000000   0.000000
  228  C 19  Y   -0.009993  -0.004764   0.019170   0.006973   0.003262
  229  C 19  Z    0.002288   0.000521  -0.001329  -0.002310  -0.000048
  230  C 19 XX   -0.000066  -0.000081   0.000103   0.000072  -0.000860
[...]
            404  C 26  Z      0.06098     0.02745
            405  C 26 XX     -0.11237     0.00626
            406  C 26 YY     -0.00841     0.14981
            407  C 26 ZZ      0.02273     0.12287
            408  C 26 XY     -0.00906     0.19798
            409  C 26 XZ     -0.05803     0.02045
            410  C 26 YZ      0.00000     0.14534
            411  N 27  S      2.00572     1.84313
            412  N 27  S      0.70983     0.48323
            413  N 27  S      0.77585     0.24234
            414  N 27  X      0.92577     0.84109
            415  N 27  Y      0.76430     0.66380
            416  N 27  Z      0.76528     0.66067
            417  N 27  X      0.74860     0.46829
            418  N 27  Y      0.28713     0.36251
            419  N 27  Z      0.29778     0.39107
            420  N 27 XX      0.00812     0.08673
            421  N 27 YY      0.00526     0.15145
            422  N 27 ZZ      0.00344     0.14152
            423  N 27 XY      0.00030     0.00462
            424  N 27 XZ      0.01234     0.00047
            425  N 27 YZ      0.00000     0.02342
            426  N 27  S     -0.09517     0.05068
            427  N 27  X      0.04039     0.03973
            428  N 27  Y      0.03901     0.04633
            429  N 27  Z     -0.00912     0.04023
            430  N 27 XX     -0.01610     0.01073
            431  N 27 YY      0.00342     0.09673
            432  N 27 ZZ      0.01473     0.06593
            433  N 27 XY      0.00100     0.04359
            434  N 27 XZ     -0.02013     0.00347
            435  N 27 YZ      0.00000     0.11821
            436  N 28  S      2.00572     1.84313
            437  N 28  S      0.70983     0.48323
            438  N 28  S      0.77585     0.24234
            439  N 28  X      0.92577     0.84109
            440  N 28  Y      0.76430     0.66380
            441  N 28  Z      0.76528     0.66067
            442  N 28  X      0.74860     0.46829
            443  N 28  Y      0.28713     0.36251
            444  N 28  Z      0.29778     0.39107
            445  N 28 XX      0.00812     0.08673
            446  N 28 YY      0.00526     0.15145
            447  N 28 ZZ      0.00344     0.14152
            448  N 28 XY      0.00030     0.00462
            449  N 28 XZ      0.01234     0.00047
            450  N 28 YZ      0.00000     0.02342
            451  N 28  S     -0.09516     0.05068
            452  N 28  X      0.04039     0.03973
            453  N 28  Y      0.03901     0.04633
            454  N 28  Z     -0.00912     0.04023
            455  N 28 XX     -0.01610     0.01073
            456  N 28 YY      0.00342     0.09673
            457  N 28 ZZ      0.01473     0.06593
            458  N 28 XY      0.00100     0.04359
            459  N 28 XZ     -0.02013     0.00347
            460  N 28 YZ      0.00000     0.11821

          ----- MULLIKEN ATOMIC OVERLAP POPULATIONS -----
          (OFF-DIAGONAL ELEMENTS NEED TO BE MULTIPLIED BY 2)

             1           2           3           4           5

    1    2.2143477
    2    0.0934590   2.4977471
    3    0.0934569  -0.3468197   2.4977186
    4   -0.1701021   0.0901097  -0.0215404   2.1584526
    5   -0.1700980  -0.0215398   0.0901067   0.0193168   2.1584444
    6   -0.0179032  -0.2790035   0.0473409   0.0874746   0.0010171
    7   -0.0179026   0.0473423  -0.2789953   0.0010173   0.0874768
    8    0.0159026  -0.0130195   0.0007006  -0.1277053  -0.0011172
    9    0.0159032   0.0007002  -0.0130192  -0.0011172  -0.1277045
   10    0.0000216   0.0219345  -0.0026611  -0.0020283  -0.0000162
   11    0.0000216  -0.0026612   0.0219348  -0.0000162  -0.0020283
   12   -0.0003276   0.0004168  -0.0000265   0.0008382   0.0000201
   13   -0.0003276  -0.0000265   0.0004168   0.0000201   0.0008383
   14    0.0000136  -0.0006419   0.0000415   0.0003913  -0.0000027
   15    0.0000136   0.0000415  -0.0006419  -0.0000027   0.0003912
   16   -1.4771867   0.2688380   0.2687043   0.2226174   0.2226167
   17    0.2922867  -1.2214041  -0.0245174   0.3125133  -0.0010365
   18    0.2923524  -0.0245743  -1.2213683  -0.0010512   0.3125055
   19    0.1596451   0.1509704   0.1559293  -1.3038079   0.0189398
   20    0.1596123   0.1559351   0.1510383   0.0189454  -1.3037688
   21    0.0641036   0.1365222  -0.0413496   0.1535156  -0.0057021
   22    0.0641356  -0.0413379   0.1364974  -0.0057040   0.1534588
   23   -0.0005629   0.0903015   0.0046721   0.0635153  -0.0000997
   24   -0.0005713   0.0046659   0.0903317  -0.0000990   0.0635331
   25   -0.0012011   0.0391762  -0.0057228   0.0839782  -0.0002054
   26   -0.0011989  -0.0057218   0.0391707  -0.0002056   0.0839746
   27   -0.0003322  -0.0046700   0.0002448   0.0048579   0.0000114
   28   -0.0003323   0.0002448  -0.0046702   0.0000114   0.0048579

             6           7           8           9          10

    6    2.1539651
    7   -0.0040303   2.1539538
    8    0.0647665  -0.0000715   1.9256655
    9   -0.0000714   0.0647684   0.0000470   1.9256689
   10   -0.0992832   0.0001882   0.0403090   0.0000010   1.3777979
   11    0.0001882  -0.0992839   0.0000010   0.0403085  -0.0000050
   12   -0.0022856   0.0000004   0.0253971  -0.0000004   0.0172103
   13    0.0000004  -0.0022858  -0.0000004   0.0253969   0.0000000
   14    0.0023241  -0.0000010  -0.0060017   0.0000000  -0.0315775
   15   -0.0000010   0.0023245   0.0000000  -0.0060019   0.0000000
   16    0.1296885   0.1297030  -0.0418513  -0.0418538  -0.0112338
   17    0.0278671  -0.0094139   0.1732873   0.0059239   0.0309596
   18   -0.0094097   0.0278693   0.0059253   0.1733046   0.0037608
   19    0.4204027  -0.0122914  -0.0921571  -0.0013705   0.0103963
   20   -0.0122905   0.4203474  -0.0013714  -0.0921911  -0.0000398
   21   -0.6324294   0.0026793   1.0212052  -0.0000114  -0.0593886
   22    0.0026775  -0.6323729  -0.0000112   1.0212751   0.0000133
   23   -0.2617318  -0.0008103  -0.8966990   0.0000424   0.1806629
   24   -0.0008099  -0.2617652   0.0000424  -0.8967605   0.0000000
   25   -0.0683281   0.0003764  -0.4891473  -0.0000024  -0.0750808
   26    0.0003764  -0.0683137  -0.0000024  -0.4891416  -0.0000071
   27    0.0341009  -0.0000064  -0.0022637   0.0000000  -0.0096905
   28   -0.0000064   0.0341018   0.0000000  -0.0022601   0.0000001

            11          12          13          14          15

   11    1.3777993
   12    0.0000000   0.8473138
   13    0.0172105   0.0000000   0.8473137
   14    0.0000000  -0.1836698   0.0000000   0.8403775
   15   -0.0315785   0.0000000  -0.1836695   0.0000000   0.8403767
   16   -0.0112348  -0.0007190  -0.0007190   0.0013097   0.0013097
   17    0.0037614  -0.0011846   0.0003745  -0.0044568  -0.0003542
   18    0.0309594   0.0003744  -0.0011848  -0.0003542  -0.0044566
   19   -0.0000400   0.0144665  -0.0000417   0.0063598   0.0000285
   20    0.0104043  -0.0000417   0.0144677   0.0000285   0.0063588
   21    0.0000133  -0.0732075   0.0000114  -0.0265598  -0.0000056
   22   -0.0594031   0.0000114  -0.0732094  -0.0000056  -0.0265570
   23    0.0000000   0.1980709  -0.0000006  -0.0055725   0.0000002
   24    0.1806872  -0.0000006   0.1980732   0.0000002  -0.0055760
   25   -0.0000071  -0.2233280   0.0000001  -0.0554427   0.0000000
   26   -0.0750997   0.0000001  -0.2233289   0.0000000  -0.0554388
   27    0.0000001   0.4217613   0.0000000   0.4334077   0.0000000
   28   -0.0096875   0.0000000   0.4217609   0.0000000   0.4334056

            16          17          18          19          20

   16   17.2960534
   17   -5.6363972  14.6550046
   18   -5.6366954   1.4787371  14.6555919
   19   -0.2357951  -4.7657308   0.4261271  15.8129491
   20   -0.2356531   0.4259523  -4.7659312  -0.7554806  15.8130967
   21    0.0864757   0.6949087  -0.4308890  -5.1727308   0.2909445
   22    0.0863203  -0.4307886   0.6946867   0.2909225  -5.1726725
   23   -0.3119668  -0.3189259   0.1556356  -0.3151388  -0.0417338
   24   -0.3119173   0.1555968  -0.3190435  -0.0417199  -0.3151307
   25    0.1246002  -0.2154047  -0.0477983   0.1417450   0.0066107
   26    0.1245910  -0.0477922  -0.2153858   0.0066085   0.1417108
   27   -0.0074835   0.0298846   0.0026523  -0.0474182  -0.0002722
   28   -0.0074839   0.0026525   0.0298865  -0.0002722  -0.0474202

            21          22          23          24          25

   21   13.2699112
   22   -0.1056409  13.2703628
   23   -3.0663172   0.0056384  10.9956136
   24    0.0056362  -3.0666299  -0.0006630  10.9961838
   25   -0.1698462  -0.0019326  -1.1744798   0.0000232   6.8761581
   26   -0.0019323  -0.1697814   0.0000232  -1.1745753  -0.0000183
   27    0.0121668   0.0000532  -0.1801361  -0.0000007   0.3204293
   28    0.0000532   0.0121699  -0.0000007  -0.1801326   0.0000001

            26          27          28

   26    6.8762084
   27    0.0000001   6.2604588
   28    0.3204183   0.0000000   6.2604626

          TOTAL MULLIKEN AND LOWDIN ATOMIC POPULATIONS
       ATOM         MULL.POP.    CHARGE          LOW.POP.     CHARGE
    1 H             1.607229   -0.607229         0.930905    0.069095
    2 H             1.636985   -0.636985         0.918789    0.081211
    3 H             1.636973   -0.636973         0.918789    0.081211
    4 H             1.584195   -0.584195         0.931263    0.068737
    5 H             1.584190   -0.584190         0.931263    0.068737
    6 H             1.584606   -0.584606         0.918702    0.081298
    7 H             1.584605   -0.584605         0.918702    0.081298
    8 H             1.601830   -0.601830         0.931917    0.068083
    9 H             1.601834   -0.601834         0.931917    0.068083
   10 H             1.392244   -0.392244         0.905121    0.094879
   11 H             1.392244   -0.392244         0.905121    0.094879
   12 H             1.041090   -0.041090         0.920820    0.079180
   13 H             1.041090   -0.041090         0.920820    0.079180
   14 H             0.969968    0.030032         0.920013    0.079987
   15 H             0.969967    0.030033         0.920013    0.079987
   16 C             4.994637    1.005363         6.051582   -0.051582
   17 C             5.612303    0.387697         6.020731   -0.020731
   18 C             5.612226    0.387774         6.020731   -0.020731
   19 C             4.871496    1.128504         6.054275   -0.054275
   20 C             4.871455    1.128545         6.054275   -0.054275
   21 C             5.952137    0.047863         6.029615   -0.029615
   22 C             5.952176    0.047824         6.029615   -0.029615
   23 C             5.119337    0.880663         6.058658   -0.058658
   24 C             5.119378    0.880622         6.058658   -0.058658
   25 C             5.065152    0.934848         6.018909   -0.018909
   26 C             5.065138    0.934862         6.018909   -0.018909
   27 N             7.267756   -0.267756         6.879945    0.120055
   28 N             7.267759   -0.267759         6.879945    0.120055

          MULLIKEN SPHERICAL HARMONIC POPULATIONS
       ATOM           S       P       D      F      G      H      I    TOTAL
    1 H             1.59    0.02    0.00   0.00   0.00   0.00   0.00    1.61
    2 H             1.62    0.01    0.00   0.00   0.00   0.00   0.00    1.64
    3 H             1.62    0.01    0.00   0.00   0.00   0.00   0.00    1.64
    4 H             1.57    0.01    0.00   0.00   0.00   0.00   0.00    1.58
    5 H             1.57    0.01    0.00   0.00   0.00   0.00   0.00    1.58
    6 H             1.58    0.00    0.00   0.00   0.00   0.00   0.00    1.58
    7 H             1.58    0.00    0.00   0.00   0.00   0.00   0.00    1.58
    8 H             1.58    0.02    0.00   0.00   0.00   0.00   0.00    1.60
    9 H             1.58    0.02    0.00   0.00   0.00   0.00   0.00    1.60
   10 H             1.37    0.02    0.00   0.00   0.00   0.00   0.00    1.39
   11 H             1.37    0.02    0.00   0.00   0.00   0.00   0.00    1.39
   12 H             1.00    0.04    0.00   0.00   0.00   0.00   0.00    1.04
   13 H             1.00    0.04    0.00   0.00   0.00   0.00   0.00    1.04
   14 H             0.95    0.02    0.00   0.00   0.00   0.00   0.00    0.97
   15 H             0.95    0.02    0.00   0.00   0.00   0.00   0.00    0.97
   16 C             2.33    2.87   -0.21   0.00   0.00   0.00   0.00    4.99
   17 C             2.79    2.82    0.01   0.00   0.00   0.00   0.00    5.61
   18 C             2.79    2.82    0.01   0.00   0.00   0.00   0.00    5.61
   19 C             2.41    2.66   -0.19   0.00   0.00   0.00   0.00    4.87
   20 C             2.41    2.66   -0.19   0.00   0.00   0.00   0.00    4.87
   21 C             2.93    2.87    0.16   0.00   0.00   0.00   0.00    5.95
   22 C             2.93    2.87    0.16   0.00   0.00   0.00   0.00    5.95
   23 C             2.31    2.99   -0.19   0.00   0.00   0.00   0.00    5.12
   24 C             2.31    2.99   -0.19   0.00   0.00   0.00   0.00    5.12
   25 C             3.09    2.01   -0.03   0.00   0.00   0.00   0.00    5.07
   26 C             3.09    2.01   -0.03   0.00   0.00   0.00   0.00    5.07
   27 N             3.40    3.86    0.01   0.00   0.00   0.00   0.00    7.27
   28 N             3.40    3.86    0.01   0.00   0.00   0.00   0.00    7.27

          -------------------------------
          BOND ORDER AND VALENCE ANALYSIS     BOND ORDER THRESHOLD=0.050
          -------------------------------

                   BOND                       BOND                       BOND
  ATOM PAIR DIST  ORDER      ATOM PAIR DIST  ORDER      ATOM PAIR DIST  ORDER
    1   2  3.080  0.062        1   3  3.080  0.062        1   4  2.520 -0.066
    1   5  2.520 -0.066        1  16  1.086 -0.590        1  17  2.133  0.659
    1  18  2.133  0.659        1  19  2.718 -0.162        1  20  2.718 -0.162
    1  21  4.090  0.054        1  22  4.090  0.054        2   3  2.369 -0.128
    2   4  3.083  0.051        2   6  2.363 -0.108        2  16  2.119  0.564
    2  17  1.088 -0.299        2  18  2.632 -0.257        2  19  2.124  0.480
    2  20  4.023  0.073        2  21  2.631 -0.121        2  23  4.027  0.067
    3   5  3.083  0.051        3   7  2.363 -0.108        3  16  2.119  0.564
    3  17  2.632 -0.257        3  18  1.088 -0.299        3  19  4.023  0.073
    3  20  2.124  0.480        3  22  2.631 -0.121        3  24  4.027  0.067
    4   6  3.075  0.059        4   8  2.543 -0.054        4  16  2.718 -0.130
    4  17  2.137  0.604        4  19  1.086 -0.455        4  21  2.130  0.541
    4  23  2.724 -0.111        5   7  3.075  0.059        5   9  2.543 -0.054
    5  16  2.718 -0.130        5  18  2.137  0.604        5  20  1.086 -0.455
    5  22  2.130  0.541        5  24  2.724 -0.111        6  16  4.011  0.098
    6  17  2.626 -0.252        6  19  2.112  0.589        6  23  2.126  0.187
    6  25  2.606 -0.130        7  16  4.011  0.098        7  18  2.626 -0.252
    7  20  2.112  0.588        7  24  2.126  0.187        7  26  2.606 -0.130
    8  17  4.119  0.137        8  19  2.735 -0.325        8  21  2.148  1.090
    8  23  1.085 -0.233        8  25  2.128 -0.078        9  18  4.119  0.137
    9  20  2.735 -0.325        9  22  2.148  1.090        9  24  1.085 -0.233
    9  26  2.128 -0.078       10  19  4.009  0.055       10  23  2.124  0.060
   10  25  1.085  0.670       11  20  4.009  0.055       11  24  2.124  0.060
   11  26  1.085  0.670       12  14  1.716 -0.092       12  21  4.047 -0.074
   12  23  2.666  0.152       12  25  2.041 -0.191       12  27  1.005  1.116
   13  15  1.716 -0.092       13  22  4.047 -0.074       13  24  2.666  0.152
   13  26  2.041 -0.191       13  28  1.005  1.116       14  25  2.037 -0.059
   14  27  1.003  1.073       15  26  2.037 -0.059       15  28  1.003  1.073
   16  17  1.385  1.996       16  18  1.385  1.996       16  19  2.465 -0.672
   16  20  2.465 -0.672       16  21  3.718  0.288       16  22  3.718  0.288
   16  25  6.119  0.072       16  26  6.119  0.072       17  18  2.425 -0.299
   17  19  1.391  1.993       17  20  3.726  0.209       17  21  2.423 -0.375
   17  22  4.847 -0.054       17  23  3.733  0.185       17  25  4.828  0.063
   18  19  3.726  0.209       18  20  1.391  1.993       18  21  4.847 -0.054
   18  22  2.423 -0.375       18  24  3.733  0.185       18  26  4.828  0.063
   19  21  1.379  1.767       19  22  6.140  0.054       19  23  2.467 -0.564
   19  25  3.701  0.121       19  27  4.864  0.058       20  21  6.140  0.054
   20  22  1.379  1.767       20  24  2.467 -0.564       20  26  3.701  0.121
   20  28  4.864  0.058       21  23  1.396  2.022       21  25  2.408 -0.119
   22  24  1.396  2.022       22  26  2.408 -0.119       23  25  1.371  1.311
   24  26  1.371  1.311       25  27  1.328  1.126       26  28  1.328  1.126

                       TOTAL       BONDED        FREE
      ATOM            VALENCE     VALENCE     VALENCE
    1 H                 0.491       0.491       0.000
    2 H                 0.379       0.379       0.000
    3 H                 0.379       0.379       0.000
    4 H                 0.493       0.493       0.000
    5 H                 0.493       0.493       0.000
    6 H                 0.486       0.486       0.000
    7 H                 0.486       0.486       0.000
    8 H                 0.626       0.626       0.000
    9 H                 0.626       0.626       0.000
   10 H                 0.823       0.823       0.000
   11 H                 0.823       0.823       0.000
   12 H                 0.980       0.980       0.000
   13 H                 0.980       0.980       0.000
   14 H                 0.894       0.894       0.000
   15 H                 0.894       0.894       0.000
   16 C                 3.773       3.773       0.000
   17 C                 4.393       4.393       0.000
   18 C                 4.393       4.393       0.000
   19 C                 3.244       3.244       0.000
   20 C                 3.244       3.244       0.000
   21 C                 5.025       5.025       0.000
   22 C                 5.025       5.025       0.000
   23 C                 3.098       3.098       0.000
   24 C                 3.098       3.098       0.000
   25 C                 2.825       2.825       0.000
   26 C                 2.825       2.825       0.000
   27 N                 3.364       3.364       0.000
   28 N                 3.364       3.364       0.000

          ---------------------
          ELECTROSTATIC MOMENTS
          ---------------------

 POINT   1           X           Y           Z (BOHR)    CHARGE
                 0.000000    0.000000    0.005996        1.00 (A.U.)
         DX          DY          DZ         /D/  (DEBYE)
     0.000000    0.000000   -2.296443    2.296443
 ...... END OF PROPERTY EVALUATION ......
 ON NODE 0, STEP CPU TIME =     1.15 TOTAL CPU TIME =      411.3 (    6.9 MIN)
 TOTAL WALL CLOCK TIME=      418.0 SECONDS, CPU UTILIZATION IS  98.40%
               1619582  WORDS OF DYNAMIC MEMORY USED
 EXECUTION OF GAMESS TERMINATED NORMALLY Tue Sep 19 11:16:10 2017
 DDI: 1128 bytes (0.0 MB / 0 MWords) used by master data server.

 ----------------------------------------
 CPU timing information for all processes
 ========================================
 0: 409.929619 + 1.380086 = 411.309705
 1: 409.409586 + 0.444027 = 409.853613
 2: 409.589597 + 0.592037 = 410.181634
 3: 409.969621 + 0.300018 = 410.269639
 4: 409.021562 + 0.636039 = 409.657601
 5: 409.793610 + 0.308019 = 410.101629
 6: 407.561471 + 0.552034 = 408.113505
 7: 410.573659 + 0.248015 = 410.821674
 ----------------------------------------
 ddikick.x: exited gracefully.
----- accounting info -----
Tue Sep 19 11:16:13 CEST 2017
Files used on the master node lpqlx139 were:
-rw-r--r-- 1 scemama scemama  3238641 Sep 19 11:16 /tmp/gamess/C11.dat
-rw-r--r-- 1 scemama scemama     1669 Sep 19 11:09 /tmp/gamess/C11.F05
-rw-r--r-- 1 scemama scemama 53399040 Sep 19 11:16 /tmp/gamess/C11.F10
0.104u 0.012s 7:04.48 0.0%	0+0k 0+16io 0pf+0w
