----- GAMESS execution script -----
This job is running on host lpqlx139
under operating system Linux at Tue Sep 19 10:36:44 CEST 2017
Available scratch disk space (Kbyte units) at beginning of the job is
Filesystem                                             1K-blocks     Used Available Use% Mounted on
/dev/disk/by-uuid/e0d35396-14d3-4d0f-9cc9-2a3899cf3e0f  51175000 49534920   1640080  97% /

 Distributed Data Interface kickoff program.
 Initiating 1 compute processes on 1 nodes to run the following command:
 /usr/local/gamess/gamess.01.x C3 

          ******************************************************
          *         GAMESS VERSION = 22 FEB 2006 (R5)          *
          *             FROM IOWA STATE UNIVERSITY             *
          * M.W.SCHMIDT, K.K.BALDRIDGE, J.A.BOATZ, S.T.ELBERT, *
          *   M.S.GORDON, J.H.JENSEN, S.KOSEKI, N.MATSUNAGA,   *
          *          K.A.NGUYEN, S.J.SU, T.L.WINDUS,           *
          *       TOGETHER WITH M.DUPUIS, J.A.MONTGOMERY       *
          *         J.COMPUT.CHEM.  14, 1347-1363(1993)        *
          ***************** AMD 64 BIT VERSION *****************

     SINCE 1993, STUDENTS AND POSTDOCS WORKING AT IOWA STATE UNIVERSITY
     AND ALSO IN THEIR VARIOUS JOBS AFTER LEAVING ISU HAVE MADE IMPORTANT
     CONTRIBUTIONS TO THE CODE:
     IVANA ADAMOVIC, CHRISTINE AIKENS, YURI ALEXEEV, POOJA ARORA, ROB BELL,
     PRADIPTA BANDYOPADHYAY, BRETT BODE, GALINA CHABAN, WEI CHEN,
     CHEOL HO CHOI, PAUL DAY, TIM DUDLEY, DMITRI FEDOROV, GRAHAM FLETCHER,
     MARK FREITAG, KURT GLAESEMANN, GRANT MERRILL, TAKESHI NAGATA,
     HEATHER NETZLOFF, BOSILJKA NJEGIC, RYAN OLSON, MIKE PAK, JIM SHOEMAKER,
     LYUDMILA SLIPCHENKO, JIE SONG, TETSUYA TAKETSUGU, SIMON WEBB.

     ADDITIONAL CODE HAS BEEN PROVIDED BY COLLABORATORS IN OTHER GROUPS:
     IOWA STATE UNIVERSITY: JOE IVANIC, KLAUS RUEDENBERG
     UNIVERSITY OF TOKYO: KIMIHIKO HIRAO, HARUYUKI NAKANO, TAKAHITO
          NAKAJIMA, TAKAO TSUNEDA, MUNEAKI KAMIYA, SUSUMU YANAGISAWA,
          KIYOSHI YAGI
     UNIVERSITY OF SOUTHERN DENMARK: FRANK JENSEN
     UNIVERSITY OF IOWA: VISVALDAS KAIRYS, HUI LI
     NATIONAL INST. OF STANDARDS AND TECHNOLOGY: WALT STEVENS, DAVID GARMER
     UNIVERSITY OF PISA: BENEDETTA MENNUCCI, JACOPO TOMASI
     UNIVERSITY OF MEMPHIS: HENRY KURTZ, PRAKASHAN KORAMBATH
     UNIVERSITY OF ALBERTA: MARIUSZ KLOBUKOWSKI
     UNIVERSITY OF NEW ENGLAND: MARK SPACKMAN
     MIE UNIVERSITY: HIROAKI UMEDA
     MICHIGAN STATE UNIVERSITY:
          KAROL KOWALSKI, MARTA WLOCH, PIOTR PIECUCH
     UNIVERSITY OF SILESIA: MONIKA MUSIAL, STANISLAW KUCHARSKI
     FACULTES UNIVERSITAIRES NOTRE-DAME DE LA PAIX:
          OLIVIER QUINET, BENOIT CHAMPAGNE
     UNIVERSITY OF CALIFORNIA - SANTA BARBARA: BERNARD KIRTMAN
     INSTITUTE FOR MOLECULAR SCIENCE: KAZUYA ISHIMURA AND SHIGERU NAGASE
     UNIVERSITY OF NOTRE DAME: DAN CHIPMAN
     KYUSHU UNIVERSITY:
          FENG LONG GU, JACEK KORCHOWIEC, MARCIN MAKOWSKI, AND YURIKO AOKI
     PENNSYLVANIA STATE UNIVERSITY:
          TZVETELIN IORDANOV, CHET SWALINA, SHARON HAMMES-SCHIFFER

 EXECUTION OF GAMESS BEGUN Tue Sep 19 10:36:45 2017

            ECHO OF THE FIRST FEW INPUT CARDS -
 INPUT CARD> $CONTRL                                                                        
 INPUT CARD>   EXETYP=RUN COORD=UNIQUE  UNITS=ANGS                                          
 INPUT CARD>   RUNTYP=ENERGY SCFTYP=RHF CITYP=NONE                                          
 INPUT CARD>   MAXIT=100                                                                    
 INPUT CARD>   ISPHER=1                                                                     
 INPUT CARD>   MULT=1                                                                       
 INPUT CARD>   ICHARG=1                                                                     
 INPUT CARD>   MPLEVL=0                                                                     
 INPUT CARD> $END                                                                           
 INPUT CARD>                                                                                
 INPUT CARD> $GUESS                                                                         
 INPUT CARD>  GUESS=HUCKEL                                                                  
 INPUT CARD> $END                                                                           
 INPUT CARD>                                                                                
 INPUT CARD> $BASIS                                                                         
 INPUT CARD>  GBASIS=ACCD                                                                   
 INPUT CARD> $END                                                                           
 INPUT CARD>                                                                                
 INPUT CARD> $DATA                                                                          
 INPUT CARD>C3                                                                              
 INPUT CARD>C1                                                                              
 INPUT CARD>H  1.0        0.000000    0.000000    1.424526                                  
 INPUT CARD>H  1.0        0.000000    1.160197   -1.449153                                  
 INPUT CARD>H  1.0        0.000000   -1.160197   -1.449153                                  
 INPUT CARD>H  1.0        0.000000    2.531432    1.161940                                  
 INPUT CARD>H  1.0        0.000000   -2.531432    1.161940                                  
 INPUT CARD>H  1.0        0.000000    3.211384   -0.414923                                  
 INPUT CARD>H  1.0        0.000000   -3.211384   -0.414923                                  
 INPUT CARD>C  6.0        0.000000    0.000000    0.340620                                  
 INPUT CARD>C  6.0        0.000000    1.188118   -0.363814                                  
 INPUT CARD>C  6.0        0.000000   -1.188118   -0.363814                                  
 INPUT CARD>N  7.0        0.000000    2.389122    0.164413                                  
 INPUT CARD>N  7.0        0.000000   -2.389122    0.164413                                  
 INPUT CARD> $END                                                                           
 INPUT CARD>                                                                                

 ..... DONE SETTING UP THE RUN .....
    1000000 WORDS OF MEMORY AVAILABLE

     BASIS OPTIONS
     -------------
     GBASIS=ACCD         IGAUSS=       0      POLAR=NONE    
     NDFUNC=       0     NFFUNC=       0     DIFFSP=       F
     NPFUNC=       0      DIFFS=       F


     RUN TITLE
     ---------
 C3                                                                              

 THE POINT GROUP OF THE MOLECULE IS C1      
 THE ORDER OF THE PRINCIPAL AXIS IS     0

 ATOM      ATOMIC                      COORDINATES (BOHR)
           CHARGE         X                   Y                   Z
 H           1.0     0.0000000000        0.0000000000        2.6919638024
 H           1.0     0.0000000000        2.1924544218       -2.7385020843
 H           1.0     0.0000000000       -2.1924544218       -2.7385020843
 H           1.0     0.0000000000        4.7837128366        2.1957482142
 H           1.0     0.0000000000       -4.7837128366        2.1957482142
 H           1.0     0.0000000000        6.0686358014       -0.7840907760
 H           1.0     0.0000000000       -6.0686358014       -0.7840907760
 C           6.0     0.0000000000        0.0000000000        0.6436784659
 C           6.0     0.0000000000        2.2452174611       -0.6875087705
 C           6.0     0.0000000000       -2.2452174611       -0.6875087705
 N           7.0     0.0000000000        4.5147859312        0.3106955188
 N           7.0     0.0000000000       -4.5147859312        0.3106955188

          INTERNUCLEAR DISTANCES (ANGS.)
          ------------------------------

                    H              H              H              H         

  1  H               0.0000000      3.0990463      3.0990463      2.5450146 *  
  2  H               3.0990463      0.0000000      2.3203940 *    2.9492528 *  
  3  H               3.0990463      2.3203940 *    0.0000000      4.5217177    
  4  H               2.5450146 *    2.9492528 *    4.5217177      0.0000000    
  5  H               2.5450146 *    4.5217177      2.9492528 *    5.0628640    
  6  H               3.7008864      2.2971721 *    4.4922547      1.7172162 *  
  7  H               3.7008864      4.4922547      2.2971721 *    5.9553701    
  8  C               1.0839060 *    2.1329192 *    2.1329192 *    2.6613370 *  
  9  C               2.1470408 *    1.0856981 *    2.5869952 *    2.0328349 *  
 10  C               2.1470408 *    2.5869952 *    1.0856981 *    4.0203206    
 11  N               2.7010718 *    2.0282633 *    3.8988794      1.0076270 *  
 12  N               2.7010718 *    3.8988794      2.0282633 *    5.0206485    

                    H              H              H              C         

  1  H               2.5450146 *    3.7008864      3.7008864      1.0839060 *  
  2  H               4.5217177      2.2971721 *    4.4922547      2.1329192 *  
  3  H               2.9492528 *    4.4922547      2.2971721 *    2.1329192 *  
  4  H               5.0628640      1.7172162 *    5.9553701      2.6613370 *  
  5  H               0.0000000      5.9553701      1.7172162 *    2.6613370 *  
  6  H               5.9553701      0.0000000      6.4227680      3.2990654    
  7  H               1.7172162 *    6.4227680      0.0000000      3.2990654    
  8  C               2.6613370 *    3.2990654      3.2990654      0.0000000    
  9  C               4.0203206      2.0239114 *    4.3997989      1.3812500 *  
 10  C               2.0328349 *    4.3997989      2.0239114 *    1.3812500 *  
 11  N               5.0206485      1.0058554 *    5.6303905      2.3956112 *  
 12  N               1.0076270 *    5.6303905      1.0058554 *    2.3956112 *  

                    C              C              N              N         

  1  H               2.1470408 *    2.1470408 *    2.7010718 *    2.7010718 *  
  2  H               1.0856981 *    2.5869952 *    2.0282633 *    3.8988794    
  3  H               2.5869952 *    1.0856981 *    3.8988794      2.0282633 *  
  4  H               2.0328349 *    4.0203206      1.0076270 *    5.0206485    
  5  H               4.0203206      2.0328349 *    5.0206485      1.0076270 *  
  6  H               2.0239114 *    4.3997989      1.0058554 *    5.6303905    
  7  H               4.3997989      2.0239114 *    5.6303905      1.0058554 *  
  8  C               1.3812500 *    1.3812500 *    2.3956112 *    2.3956112 *  
  9  C               0.0000000      2.3762360 *    1.3120344 *    3.6160296    
 10  C               2.3762360 *    0.0000000      3.6160296      1.3120344 *  
 11  N               1.3120344 *    3.6160296      0.0000000      4.7782440    
 12  N               3.6160296      1.3120344 *    4.7782440      0.0000000    

  * ... LESS THAN  3.000


     ATOMIC BASIS SET
     ----------------
 THE CONTRACTED PRIMITIVE FUNCTIONS HAVE BEEN UNNORMALIZED
 THE CONTRACTED BASIS FUNCTIONS ARE NOW NORMALIZED TO UNITY

  SHELL TYPE  PRIMITIVE        EXPONENT          CONTRACTION COEFFICIENT(S)

 H         

      1   S       1            13.0100000    0.033498726390
      1   S       2             1.9620000    0.234800801174
      1   S       3             0.4446000    0.813682957883

      2   S       4             0.1220000    1.000000000000

      3   P       5             0.7270000    1.000000000000

      4   S       6             0.0297400    1.000000000000

      5   P       7             0.1410000    1.000000000000

 H         

      6   S       8            13.0100000    0.033498726390
      6   S       9             1.9620000    0.234800801174
      6   S      10             0.4446000    0.813682957883

      7   S      11             0.1220000    1.000000000000

      8   P      12             0.7270000    1.000000000000

      9   S      13             0.0297400    1.000000000000

     10   P      14             0.1410000    1.000000000000

 H         

     11   S      15            13.0100000    0.033498726390
     11   S      16             1.9620000    0.234800801174
     11   S      17             0.4446000    0.813682957883

     12   S      18             0.1220000    1.000000000000

     13   P      19             0.7270000    1.000000000000

     14   S      20             0.0297400    1.000000000000

     15   P      21             0.1410000    1.000000000000

 H         

     16   S      22            13.0100000    0.033498726390
     16   S      23             1.9620000    0.234800801174
     16   S      24             0.4446000    0.813682957883

     17   S      25             0.1220000    1.000000000000

     18   P      26             0.7270000    1.000000000000

     19   S      27             0.0297400    1.000000000000

     20   P      28             0.1410000    1.000000000000

 H         

     21   S      29            13.0100000    0.033498726390
     21   S      30             1.9620000    0.234800801174
     21   S      31             0.4446000    0.813682957883

     22   S      32             0.1220000    1.000000000000

     23   P      33             0.7270000    1.000000000000

     24   S      34             0.0297400    1.000000000000

     25   P      35             0.1410000    1.000000000000

 H         

     26   S      36            13.0100000    0.033498726390
     26   S      37             1.9620000    0.234800801174
     26   S      38             0.4446000    0.813682957883

     27   S      39             0.1220000    1.000000000000

     28   P      40             0.7270000    1.000000000000

     29   S      41             0.0297400    1.000000000000

     30   P      42             0.1410000    1.000000000000

 H         

     31   S      43            13.0100000    0.033498726390
     31   S      44             1.9620000    0.234800801174
     31   S      45             0.4446000    0.813682957883

     32   S      46             0.1220000    1.000000000000

     33   P      47             0.7270000    1.000000000000

     34   S      48             0.0297400    1.000000000000

     35   P      49             0.1410000    1.000000000000

 C         

     36   S      50          6665.0000000    0.000691583963
     36   S      51          1000.0000000    0.005325796153
     36   S      52           228.0000000    0.027060721042
     36   S      53            64.7100000    0.101656846141
     36   S      54            21.0600000    0.274574823617
     36   S      55             7.4950000    0.448294318924
     36   S      56             2.7970000    0.284902610715
     36   S      57             0.5215000    0.015194859206

     37   S      58          6665.0000000   -0.000293269653
     37   S      59          1000.0000000   -0.002318035474
     37   S      60           228.0000000   -0.011499786039
     37   S      61            64.7100000   -0.046826727010
     37   S      62            21.0600000   -0.128466168750
     37   S      63             7.4950000   -0.301266272463
     37   S      64             2.7970000   -0.255630702330
     37   S      65             0.5215000    1.093793361012

     38   S      66             0.1596000    1.000000000000

     39   P      67             9.4390000    0.056979251590
     39   P      68             2.0020000    0.313207211501
     39   P      69             0.5456000    0.760376741738

     40   P      70             0.1517000    1.000000000000

     41   D      71             0.5500000    1.000000000000

     42   S      72             0.0469000    1.000000000000

     43   P      73             0.0404100    1.000000000000

     44   D      74             0.1510000    1.000000000000

 C         

     45   S      75          6665.0000000    0.000691583963
     45   S      76          1000.0000000    0.005325796153
     45   S      77           228.0000000    0.027060721042
     45   S      78            64.7100000    0.101656846141
     45   S      79            21.0600000    0.274574823617
     45   S      80             7.4950000    0.448294318924
     45   S      81             2.7970000    0.284902610715
     45   S      82             0.5215000    0.015194859206

     46   S      83          6665.0000000   -0.000293269653
     46   S      84          1000.0000000   -0.002318035474
     46   S      85           228.0000000   -0.011499786039
     46   S      86            64.7100000   -0.046826727010
     46   S      87            21.0600000   -0.128466168750
     46   S      88             7.4950000   -0.301266272463
     46   S      89             2.7970000   -0.255630702330
     46   S      90             0.5215000    1.093793361012

     47   S      91             0.1596000    1.000000000000

     48   P      92             9.4390000    0.056979251590
     48   P      93             2.0020000    0.313207211501
     48   P      94             0.5456000    0.760376741738

     49   P      95             0.1517000    1.000000000000

     50   D      96             0.5500000    1.000000000000

     51   S      97             0.0469000    1.000000000000

     52   P      98             0.0404100    1.000000000000

     53   D      99             0.1510000    1.000000000000

 C         

     54   S     100          6665.0000000    0.000691583963
     54   S     101          1000.0000000    0.005325796153
     54   S     102           228.0000000    0.027060721042
     54   S     103            64.7100000    0.101656846141
     54   S     104            21.0600000    0.274574823617
     54   S     105             7.4950000    0.448294318924
     54   S     106             2.7970000    0.284902610715
     54   S     107             0.5215000    0.015194859206

     55   S     108          6665.0000000   -0.000293269653
     55   S     109          1000.0000000   -0.002318035474
     55   S     110           228.0000000   -0.011499786039
     55   S     111            64.7100000   -0.046826727010
     55   S     112            21.0600000   -0.128466168750
     55   S     113             7.4950000   -0.301266272463
     55   S     114             2.7970000   -0.255630702330
     55   S     115             0.5215000    1.093793361012

     56   S     116             0.1596000    1.000000000000

     57   P     117             9.4390000    0.056979251590
     57   P     118             2.0020000    0.313207211501
     57   P     119             0.5456000    0.760376741738

     58   P     120             0.1517000    1.000000000000

     59   D     121             0.5500000    1.000000000000

     60   S     122             0.0469000    1.000000000000

     61   P     123             0.0404100    1.000000000000

     62   D     124             0.1510000    1.000000000000

 N         

     63   S     125          9046.0000000    0.000699617413
     63   S     126          1357.0000000    0.005386054630
     63   S     127           309.3000000    0.027391021189
     63   S     128            87.7300000    0.103150591982
     63   S     129            28.5600000    0.278570663317
     63   S     130            10.2100000    0.448294849454
     63   S     131             3.8380000    0.278085928395
     63   S     132             0.7466000    0.015431561233

     64   S     133          9046.0000000   -0.000304990096
     64   S     134          1357.0000000   -0.002408026379
     64   S     135           309.3000000   -0.011944448725
     64   S     136            87.7300000   -0.048925992909
     64   S     137            28.5600000   -0.134472724725
     64   S     138            10.2100000   -0.315112577700
     64   S     139             3.8380000   -0.242857832550
     64   S     140             0.7466000    1.094382206854

     65   S     141             0.2248000    1.000000000000

     66   P     142            13.5500000    0.058905676772
     66   P     143             2.9170000    0.320461106714
     66   P     144             0.7973000    0.753042061792

     67   P     145             0.2185000    1.000000000000

     68   D     146             0.8170000    1.000000000000

     69   S     147             0.0612400    1.000000000000

     70   P     148             0.0561100    1.000000000000

     71   D     149             0.2300000    1.000000000000

 N         

     72   S     150          9046.0000000    0.000699617413
     72   S     151          1357.0000000    0.005386054630
     72   S     152           309.3000000    0.027391021189
     72   S     153            87.7300000    0.103150591982
     72   S     154            28.5600000    0.278570663317
     72   S     155            10.2100000    0.448294849454
     72   S     156             3.8380000    0.278085928395
     72   S     157             0.7466000    0.015431561233

     73   S     158          9046.0000000   -0.000304990096
     73   S     159          1357.0000000   -0.002408026379
     73   S     160           309.3000000   -0.011944448725
     73   S     161            87.7300000   -0.048925992909
     73   S     162            28.5600000   -0.134472724725
     73   S     163            10.2100000   -0.315112577700
     73   S     164             3.8380000   -0.242857832550
     73   S     165             0.7466000    1.094382206854

     74   S     166             0.2248000    1.000000000000

     75   P     167            13.5500000    0.058905676772
     75   P     168             2.9170000    0.320461106714
     75   P     169             0.7973000    0.753042061792

     76   P     170             0.2185000    1.000000000000

     77   D     171             0.8170000    1.000000000000

     78   S     172             0.0612400    1.000000000000

     79   P     173             0.0561100    1.000000000000

     80   D     174             0.2300000    1.000000000000

 TOTAL NUMBER OF BASIS SET SHELLS             =   80
 NUMBER OF CARTESIAN GAUSSIAN BASIS FUNCTIONS =  188
 NOTE: THIS RUN WILL RESTRICT THE MO VARIATION SPACE TO SPHERICAL HARMONICS.
 THE NUMBER OF ORBITALS KEPT IN THE VARIATIONAL SPACE WILL BE PRINTED LATER.
 NUMBER OF ELECTRONS                          =   38
 CHARGE OF MOLECULE                           =    1
 SPIN MULTIPLICITY                            =    1
 NUMBER OF OCCUPIED ORBITALS (ALPHA)          =   19
 NUMBER OF OCCUPIED ORBITALS (BETA )          =   19
 TOTAL NUMBER OF ATOMS                        =   12
 THE NUCLEAR REPULSION ENERGY IS      165.8640811568

     $CONTRL OPTIONS
     ---------------
 SCFTYP=RHF          RUNTYP=ENERGY       EXETYP=RUN     
 MPLEVL=       0     CITYP =NONE         CCTYP =NONE         VBTYP =NONE    
 MULT  =       1     ICHARG=       1     NZVAR =       0     COORD =UNIQUE  
 PP    =NONE         RELWFN=NONE         LOCAL =NONE         NUMGRD=       F
 ISPHER=       1     NOSYM =       0     MAXIT =     100     UNITS =ANGS    
 PLTORB=       F     MOLPLT=       F     AIMPAC=       F     FRIEND=        
 NPRINT=       7     IREST =       0     GEOM  =INPUT   
 NORMF =       0     NORMP =       0     ITOL  =      20     ICUT  =       9
 INTTYP=BEST         GRDTYP=BEST         QMTTOL= 1.0E-06

     $SYSTEM OPTIONS
     ---------------
  REPLICATED MEMORY=     1000000 WORDS (ON EVERY NODE).
 DISTRIBUTED MEMDDI=           0 MILLION WORDS IN AGGREGATE,
 MEMDDI DISTRIBUTED OVER   1 PROCESSORS IS           0 WORDS/PROCESSOR.
 TOTAL MEMORY REQUESTED ON EACH PROCESSOR=     1000000 WORDS.
 TIMLIM=      525600.00 MINUTES, OR   365.00 DAYS.
 PARALL= F  BALTYP=  NXTVAL  KDIAG=    0  COREFL= F

          ----------------
          PROPERTIES INPUT
          ----------------

     MOMENTS            FIELD           POTENTIAL          DENSITY
 IEMOM =       1   IEFLD =       0   IEPOT =       0   IEDEN =       0
 WHERE =COMASS     WHERE =NUCLEI     WHERE =NUCLEI     WHERE =NUCLEI  
 OUTPUT=BOTH       OUTPUT=BOTH       OUTPUT=BOTH       OUTPUT=BOTH    
 IEMINT=       0   IEFINT=       0                     IEDINT=       0
                                                       MORB  =       0
          EXTRAPOLATION IN EFFECT
          SOSCF IN EFFECT
 ORBITAL PRINTING OPTION: NPREO=   1 188   2   1

     -------------------------------
     INTEGRAL TRANSFORMATION OPTIONS
     -------------------------------
     NWORD  =       0     CUTOFF = 1.0E-09
     MPTRAN =       0     DIRTRF =       F
     AOINTS =DUP     

          ----------------------
          INTEGRAL INPUT OPTIONS
          ----------------------
 NOPK  =       1 NORDER=       0 SCHWRZ=       T

     ------------------------------------------
     THE POINT GROUP IS C1 , NAXIS= 0, ORDER= 1
     ------------------------------------------

 -- VARIATIONAL SPACE WILL BE RESTRICTED TO PURE SPHERICAL HARMONICS ONLY --
 AFTER EXCLUDING CONTAMINANT COMBINATIONS FROM THE CARTESIAN GAUSSIAN BASIS
 SET, THE NUMBER OF SPHERICAL HARMONICS KEPT IN THE VARIATION SPACE IS  178

     DIMENSIONS OF THE SYMMETRY SUBSPACES ARE
 A   =  178

 ..... DONE SETTING UP THE RUN .....
 STEP CPU TIME =     0.02 TOTAL CPU TIME =        0.0 (    0.0 MIN)
 TOTAL WALL CLOCK TIME=        0.0 SECONDS, CPU UTILIZATION IS 100.00%

          ********************
          1 ELECTRON INTEGRALS
          ********************
 ...... END OF ONE-ELECTRON INTEGRALS ......
 STEP CPU TIME =     0.01 TOTAL CPU TIME =        0.0 (    0.0 MIN)
 TOTAL WALL CLOCK TIME=        0.0 SECONDS, CPU UTILIZATION IS 100.00%

          -------------
          GUESS OPTIONS
          -------------
          GUESS =HUCKEL            NORB  =       0          NORDER=       0
          MIX   =       F          PRTMO =       F          PUNMO =       F
          TOLZ  = 1.0E-08          TOLE  = 1.0E-05
          SYMDEN=       F          PURIFY=       F

 INITIAL GUESS ORBITALS GENERATED BY HUCKEL   ROUTINE.
 HUCKEL GUESS REQUIRES    266904 WORDS.

 STATISTICS FOR GENERATION OF SYMMETRY ORBITAL -Q- MATRIX
 NUMBER OF CARTESIAN ATOMIC ORBITALS=        188
 NUMBER OF SPHERICAL CONTAMINANTS DROPPED=    10
 NUMBER OF LINEARLY DEPENDENT MOS DROPPED=     0
 TOTAL NUMBER OF MOS IN VARIATION SPACE=     178

 SYMMETRIES FOR INITIAL GUESS ORBITALS FOLLOW.   BOTH SET(S).
    19 ORBITALS ARE OCCUPIED (    5 CORE ORBITALS).
     6=A        7=A        8=A        9=A       10=A       11=A       12=A   
    13=A       14=A       15=A       16=A       17=A       18=A       19=A   
    20=A       21=A       22=A       23=A       24=A       25=A       26=A   
    27=A       28=A       29=A   
 ...... END OF INITIAL ORBITAL SELECTION ......
 STEP CPU TIME =     0.06 TOTAL CPU TIME =        0.1 (    0.0 MIN)
 TOTAL WALL CLOCK TIME=        0.0 SECONDS, CPU UTILIZATION IS 100.00%

                    ----------------------
                    AO INTEGRAL TECHNOLOGY
                    ----------------------
     S,P,L SHELL ROTATED AXIS INTEGRALS, REPROGRAMMED BY
        KAZUYA ISHIMURA (IMS) AND JOSE SIERRA (SYNSTAR).
     S,P,D,L SHELL ROTATED AXIS INTEGRALS PROGRAMMED BY
        KAZUYA ISHIMURA (INSTITUTE FOR MOLECULAR SCIENCE).
     S,P,D,F,G SHELL TO TOTAL QUARTET ANGULAR MOMENTUM SUM 5,
        ERIC PROGRAM BY GRAHAM FLETCHER (ELORET AND NASA ADVANCED
        SUPERCOMPUTING DIVISION, AMES RESEARCH CENTER).
     S,P,D,F,G,L SHELL GENERAL RYS QUADRATURE PROGRAMMED BY
        MICHEL DUPUIS (PACIFIC NORTHWEST NATIONAL LABORATORY).

          --------------------
          2 ELECTRON INTEGRALS
          --------------------

 THE -PK- OPTION IS OFF, THE INTEGRALS ARE NOT IN SUPERMATRIX FORM.
 STORING   15000 INTEGRALS/RECORD ON DISK, USING 12 BYTES/INTEGRAL.
 TWO ELECTRON INTEGRAL EVALUATION REQUIRES   93636 WORDS OF MEMORY.
 SCHWARZ INEQUALITY OVERHEAD:     17666 INTEGRALS, T=        0.01
 II,JST,KST,LST =  1  1  1  1 NREC =         1 INTLOC =    1
 II,JST,KST,LST =  2  1  1  1 NREC =         1 INTLOC =    2
 II,JST,KST,LST =  3  1  1  1 NREC =         1 INTLOC =    7
 II,JST,KST,LST =  4  1  1  1 NREC =         1 INTLOC =   34
 II,JST,KST,LST =  5  1  1  1 NREC =         1 INTLOC =   67
 II,JST,KST,LST =  6  1  1  1 NREC =         1 INTLOC =  214
 II,JST,KST,LST =  7  1  1  1 NREC =         1 INTLOC =  528
 II,JST,KST,LST =  8  1  1  1 NREC =         1 INTLOC =  959
 II,JST,KST,LST =  9  1  1  1 NREC =         1 INTLOC = 2722
 II,JST,KST,LST = 10  1  1  1 NREC =         1 INTLOC = 3727
 II,JST,KST,LST = 11  1  1  1 NREC =         1 INTLOC = 7454
 II,JST,KST,LST = 12  1  1  1 NREC =         1 INTLOC = 9385
 II,JST,KST,LST = 13  1  1  1 NREC =         1 INTLOC =11681
 II,JST,KST,LST = 14  1  1  1 NREC =         2 INTLOC = 4294
 II,JST,KST,LST = 15  1  1  1 NREC =         2 INTLOC = 8040
 II,JST,KST,LST = 16  1  1  1 NREC =         3 INTLOC = 5234
 II,JST,KST,LST = 17  1  1  1 NREC =         3 INTLOC =11029
 II,JST,KST,LST = 18  1  1  1 NREC =         4 INTLOC = 3341
 II,JST,KST,LST = 19  1  1  1 NREC =         5 INTLOC = 8435
 II,JST,KST,LST = 20  1  1  1 NREC =         6 INTLOC = 3896
 II,JST,KST,LST = 21  1  1  1 NREC =         8 INTLOC = 7011
 II,JST,KST,LST = 22  1  1  1 NREC =         9 INTLOC = 3518
 II,JST,KST,LST = 23  1  1  1 NREC =        10 INTLOC = 4171
 II,JST,KST,LST = 24  1  1  1 NREC =        12 INTLOC =11185
 II,JST,KST,LST = 25  1  1  1 NREC =        14 INTLOC = 1793
 II,JST,KST,LST = 26  1  1  1 NREC =        18 INTLOC = 3503
 II,JST,KST,LST = 27  1  1  1 NREC =        19 INTLOC =10422
 II,JST,KST,LST = 28  1  1  1 NREC =        21 INTLOC = 9075
 II,JST,KST,LST = 29  1  1  1 NREC =        26 INTLOC =  711
 II,JST,KST,LST = 30  1  1  1 NREC =        28 INTLOC = 7650
 II,JST,KST,LST = 31  1  1  1 NREC =        35 INTLOC = 8985
 II,JST,KST,LST = 32  1  1  1 NREC =        37 INTLOC =11792
 II,JST,KST,LST = 33  1  1  1 NREC =        40 INTLOC =12158
 II,JST,KST,LST = 34  1  1  1 NREC =        47 INTLOC = 1442
 II,JST,KST,LST = 35  1  1  1 NREC =        50 INTLOC =14740
 II,JST,KST,LST = 36  1  1  1 NREC =        61 INTLOC = 5359
 II,JST,KST,LST = 37  1  1  1 NREC =        65 INTLOC =10038
 II,JST,KST,LST = 38  1  1  1 NREC =        70 INTLOC = 8423
 II,JST,KST,LST = 39  1  1  1 NREC =        75 INTLOC =13010
 II,JST,KST,LST = 40  1  1  1 NREC =        90 INTLOC =11674
 II,JST,KST,LST = 41  1  1  1 NREC =       108 INTLOC = 5125
 II,JST,KST,LST = 42  1  1  1 NREC =       149 INTLOC = 8311
 II,JST,KST,LST = 43  1  1  1 NREC =       158 INTLOC = 7834
 II,JST,KST,LST = 44  1  1  1 NREC =       184 INTLOC = 7478
 II,JST,KST,LST = 45  1  1  1 NREC =       245 INTLOC = 3608
 II,JST,KST,LST = 46  1  1  1 NREC =       256 INTLOC =11145
 II,JST,KST,LST = 47  1  1  1 NREC =       269 INTLOC = 5169
 II,JST,KST,LST = 48  1  1  1 NREC =       283 INTLOC = 3675
 II,JST,KST,LST = 49  1  1  1 NREC =       320 INTLOC =14303
 II,JST,KST,LST = 50  1  1  1 NREC =       365 INTLOC = 2948
 II,JST,KST,LST = 51  1  1  1 NREC =       461 INTLOC = 2979
 II,JST,KST,LST = 52  1  1  1 NREC =       481 INTLOC =11436
 II,JST,KST,LST = 53  1  1  1 NREC =       541 INTLOC = 4527
 II,JST,KST,LST = 54  1  1  1 NREC =       675 INTLOC =10732
 II,JST,KST,LST = 55  1  1  1 NREC =       700 INTLOC = 1205
 II,JST,KST,LST = 56  1  1  1 NREC =       726 INTLOC = 6161
 II,JST,KST,LST = 57  1  1  1 NREC =       754 INTLOC =12524
 II,JST,KST,LST = 58  1  1  1 NREC =       832 INTLOC = 8232
 II,JST,KST,LST = 59  1  1  1 NREC =       920 INTLOC = 9862
 II,JST,KST,LST = 60  1  1  1 NREC =      1108 INTLOC = 1355
 II,JST,KST,LST = 61  1  1  1 NREC =      1146 INTLOC =10415
 II,JST,KST,LST = 62  1  1  1 NREC =      1257 INTLOC =12356
 II,JST,KST,LST = 63  1  1  1 NREC =      1502 INTLOC = 7166
 II,JST,KST,LST = 64  1  1  1 NREC =      1541 INTLOC =10819
 II,JST,KST,LST = 65  1  1  1 NREC =      1585 INTLOC =14626
 II,JST,KST,LST = 66  1  1  1 NREC =      1635 INTLOC = 2175
 II,JST,KST,LST = 67  1  1  1 NREC =      1764 INTLOC =  424
 II,JST,KST,LST = 68  1  1  1 NREC =      1914 INTLOC = 9986
 II,JST,KST,LST = 69  1  1  1 NREC =      2217 INTLOC = 9600
 II,JST,KST,LST = 70  1  1  1 NREC =      2283 INTLOC = 4553
 II,JST,KST,LST = 71  1  1  1 NREC =      2472 INTLOC = 7798
 II,JST,KST,LST = 72  1  1  1 NREC =      2870 INTLOC = 6883
 II,JST,KST,LST = 73  1  1  1 NREC =      2926 INTLOC = 3984
 II,JST,KST,LST = 74  1  1  1 NREC =      2991 INTLOC = 3160
 II,JST,KST,LST = 75  1  1  1 NREC =      3068 INTLOC = 2143
 II,JST,KST,LST = 76  1  1  1 NREC =      3254 INTLOC = 6768
 II,JST,KST,LST = 77  1  1  1 NREC =      3486 INTLOC = 4523
 II,JST,KST,LST = 78  1  1  1 NREC =      3917 INTLOC = 2373
 II,JST,KST,LST = 79  1  1  1 NREC =      4017 INTLOC =10566
 II,JST,KST,LST = 80  1  1  1 NREC =      4306 INTLOC = 1254
 SCHWARZ INEQUALITY TEST SKIPPED    342265 INTEGRAL BLOCKS.
 TOTAL NUMBER OF NONZERO TWO-ELECTRON INTEGRALS =            73338055
       4890 INTEGRAL RECORDS WERE STORED ON DISK FILE  8.
  ...... END OF TWO-ELECTRON INTEGRALS .....
 STEP CPU TIME =     6.31 TOTAL CPU TIME =        6.4 (    0.1 MIN)
 TOTAL WALL CLOCK TIME=        6.0 SECONDS, CPU UTILIZATION IS 106.67%

          --------------------------
                 RHF SCF CALCULATION
          --------------------------

     NUCLEAR ENERGY =       165.8640811568
     MAXIT =  100     NPUNCH=    2
     EXTRAP=T  DAMP=F  SHIFT=F  RSTRCT=F  DIIS=F  DEM=F  SOSCF=T
     DENSITY MATRIX CONV=  1.00E-05
     SOSCF WILL OPTIMIZE    3021 ORBITAL ROTATIONS, SOGTOL=   0.250
     MEMORY REQUIRED FOR RHF STEP=    292124 WORDS.

 ITER EX DEM     TOTAL ENERGY        E CHANGE  DENSITY CHANGE     ORB. GRAD
   1  0  0     -225.6555292331  -225.6555292331   0.751599736   0.000000000
          ---------------START SECOND ORDER SCF---------------
   2  1  0     -226.3375233196    -0.6819940866   0.165289867   0.054428394
   3  2  0     -226.3887049326    -0.0511816130   0.062444335   0.027746333
   4  3  0     -226.4029332102    -0.0142282776   0.050047086   0.004091808
   5  4  0     -226.4037420411    -0.0008088309   0.003432748   0.002141624
   6  5  0     -226.4038431668    -0.0001011257   0.002302558   0.000385448
   7  6  0     -226.4038487833    -0.0000056165   0.000505656   0.000100208
   8  7  0     -226.4038492242    -0.0000004410   0.000110651   0.000030166
   9  8  0     -226.4038492400    -0.0000000158   0.000057168   0.000009222
  10  9  0     -226.4038492421    -0.0000000021   0.000013375   0.000001951
  11 10  0     -226.4038492423    -0.0000000002   0.000003803   0.000000565
  12 11  0     -226.4038492423     0.0000000000   0.000000995   0.000000218

          -----------------
          DENSITY CONVERGED
          -----------------
     TIME TO FORM FOCK OPERATORS=       8.0 SECONDS (       0.7 SEC/ITER)
     TIME TO SOLVE SCF EQUATIONS=       0.1 SECONDS (       0.0 SEC/ITER)

 FINAL RHF ENERGY IS     -226.4038492423 AFTER  12 ITERATIONS

          ------------
          EIGENVECTORS
          ------------

                      1          2          3          4          5
                  -15.7930   -15.7930   -11.5161   -11.5161   -11.4073
                     A          A          A          A          A   
    1  H  1  S   -0.000122  -0.000003   0.000205   0.000000   0.000403
    2  H  1  S   -0.001351  -0.000029   0.004521   0.000007   0.005082
    3  H  1  X    0.000000   0.000000   0.000000   0.000000   0.000000
    4  H  1  Y    0.000000  -0.000009   0.000000  -0.000028   0.000000
    5  H  1  Z    0.000021   0.000000  -0.000219   0.000000   0.000105
    6  H  1  S   -0.001665  -0.000035   0.002179   0.000003  -0.002347
    7  H  1  X    0.000000   0.000000   0.000000   0.000000   0.000000
    8  H  1  Y    0.000014  -0.000670   0.000002  -0.001563   0.000000
    9  H  1  Z    0.000290   0.000006  -0.001520  -0.000002  -0.001812
   10  H  2  S   -0.000214   0.000175   0.000272  -0.000304  -0.000075
   11  H  2  S    0.000906  -0.004758   0.006710   0.001205   0.002186
   12  H  2  X    0.000000   0.000000   0.000000   0.000000   0.000000
   13  H  2  Y   -0.000047  -0.000020   0.000028   0.000086   0.000044
   14  H  2  Z   -0.000124   0.000079  -0.000112   0.000052   0.000031
   15  H  2  S    0.000161   0.000445   0.000908   0.001649   0.001615
   16  H  2  X    0.000000   0.000000   0.000000   0.000000   0.000000
   17  H  2  Y    0.000298  -0.000427   0.000690  -0.001378   0.000300
   18  H  2  Z    0.000568  -0.001458   0.002185   0.000093   0.001014
   19  H  3  S   -0.000206  -0.000184   0.000271   0.000305  -0.000075
   20  H  3  S    0.000703   0.004792   0.006713  -0.001185   0.002186
   21  H  3  X    0.000000   0.000000   0.000000   0.000000   0.000000
   22  H  3  Y    0.000048  -0.000018  -0.000028   0.000086  -0.000044
   23  H  3  Z   -0.000121  -0.000084  -0.000112  -0.000052   0.000031
   24  H  3  S    0.000180  -0.000438   0.000913  -0.001646   0.001615
   25  H  3  X    0.000000   0.000000   0.000000   0.000000   0.000000
   26  H  3  Y   -0.000280  -0.000439  -0.000686  -0.001380  -0.000300
   27  H  3  Z    0.000506   0.001481   0.002185  -0.000086   0.001014
   28  H  4  S    0.000162  -0.000126  -0.000141   0.000111  -0.000132
   29  H  4  S    0.002417  -0.001087  -0.002119  -0.000480   0.001084
   30  H  4  X    0.000000   0.000000   0.000000   0.000000   0.000000
   31  H  4  Y    0.000020   0.000027   0.000005  -0.000023   0.000100
   32  H  4  Z    0.000199  -0.000189  -0.000213   0.000145  -0.000094
   33  H  4  S   -0.000305   0.000697  -0.000859   0.000885  -0.000385
   34  H  4  X    0.000000   0.000000   0.000000   0.000000   0.000000
   35  H  4  Y   -0.000233  -0.000135   0.000420  -0.000143  -0.000288
   36  H  4  Z   -0.000716   0.000386   0.000670   0.000193  -0.000202
   37  H  5  S    0.000156   0.000132  -0.000141  -0.000112  -0.000132
   38  H  5  S    0.002368   0.001189  -0.002121   0.000473   0.001084
   39  H  5  X    0.000000   0.000000   0.000000   0.000000   0.000000
   40  H  5  Y   -0.000021   0.000026  -0.000004  -0.000023  -0.000100
   41  H  5  Z    0.000191   0.000197  -0.000213  -0.000146  -0.000094
   42  H  5  S   -0.000275  -0.000709  -0.000856  -0.000888  -0.000385
   43  H  5  X    0.000000   0.000000   0.000000   0.000000   0.000000
   44  H  5  Y    0.000239  -0.000125  -0.000419  -0.000145   0.000288
   45  H  5  Z   -0.000699  -0.000416   0.000671  -0.000191  -0.000202
   46  H  6  S    0.000088  -0.000110  -0.000200   0.000125  -0.000268
   47  H  6  S    0.002953  -0.002353   0.001015  -0.001343   0.000339
   48  H  6  X    0.000000   0.000000   0.000000   0.000000   0.000000
   49  H  6  Y    0.000160  -0.000174  -0.000147   0.000161   0.000035
   50  H  6  Z   -0.000151   0.000127   0.000110  -0.000080   0.000064
   51  H  6  S   -0.000448   0.000281  -0.000448   0.000835   0.000559
   52  H  6  X    0.000000   0.000000   0.000000   0.000000   0.000000
   53  H  6  Y   -0.000820   0.000521  -0.000291   0.000363  -0.000328
   54  H  6  Z    0.000534  -0.000457   0.000116  -0.000085   0.000261
   55  H  7  S    0.000083   0.000114  -0.000200  -0.000126  -0.000268
   56  H  7  S    0.002850   0.002477   0.001011   0.001346   0.000339
   57  H  7  X    0.000000   0.000000   0.000000   0.000000   0.000000
   58  H  7  Y   -0.000153  -0.000181   0.000146   0.000161  -0.000035
   59  H  7  Z   -0.000145  -0.000133   0.000110   0.000080   0.000064
   60  H  7  S   -0.000436  -0.000300  -0.000446  -0.000836   0.000559
   61  H  7  X    0.000000   0.000000   0.000000   0.000000   0.000000
   62  H  7  Y    0.000797   0.000556   0.000290   0.000364   0.000328
   63  H  7  Z    0.000514   0.000480   0.000116   0.000085   0.000261
   64  C  8  S   -0.000082  -0.000002   0.007834   0.000012   1.004150
   65  C  8  S   -0.000158  -0.000003  -0.000171   0.000000   0.008315
   66  C  8  S    0.011412   0.000243   0.024061   0.000036  -0.035894
   67  C  8  X    0.000000   0.000000   0.000000   0.000000   0.000000
   68  C  8  Y   -0.000003   0.000136   0.000000  -0.000189   0.000000
   69  C  8  Z    0.000040   0.000001  -0.000055   0.000000  -0.000445
   70  C  8  X    0.000000   0.000000   0.000000   0.000000   0.000000
   71  C  8  Y    0.000124  -0.005845   0.000062  -0.041132   0.000000
   72  C  8  Z   -0.005512  -0.000117  -0.013227  -0.000020   0.003420
   73  C  8 XX   -0.000070  -0.000001   0.000206   0.000000  -0.000531
   74  C  8 YY   -0.000089  -0.000002   0.000167   0.000000   0.000436
   75  C  8 ZZ    0.000159   0.000003  -0.000373  -0.000001   0.000095
   76  C  8 XY    0.000000   0.000000   0.000000   0.000000   0.000000
   77  C  8 XZ    0.000000   0.000000   0.000000   0.000000   0.000000
   78  C  8 YZ    0.000000   0.000008   0.000000   0.000086   0.000000
   79  C  8  S   -0.011004  -0.000234   0.007842   0.000012  -0.047242
   80  C  8  X    0.000000   0.000000   0.000000   0.000000   0.000000
   81  C  8  Y   -0.000029   0.001370   0.000008  -0.005357   0.000000
   82  C  8  Z    0.002694   0.000057  -0.002982  -0.000004   0.007410
   83  C  8 XX    0.000878   0.000019  -0.000015   0.000000   0.004257
   84  C  8 YY   -0.003669  -0.000078  -0.002671  -0.000004  -0.007020
   85  C  8 ZZ    0.002791   0.000059   0.002686   0.000004   0.002763
   86  C  8 XY    0.000000   0.000000   0.000000   0.000000   0.000000
   87  C  8 XZ    0.000000   0.000000   0.000000   0.000000   0.000000
   88  C  8 YZ   -0.000047   0.002202  -0.000016   0.010893   0.000000
   89  C  9  S    0.000238  -0.000167   0.710632  -0.709066  -0.006069
   90  C  9  S    0.000337  -0.000223   0.004780  -0.005672  -0.000205
   91  C  9  S    0.005161  -0.000506  -0.014799   0.042199   0.013915
   92  C  9  X    0.000000   0.000000   0.000000   0.000000   0.000000
   93  C  9  Y    0.000209  -0.000240   0.000772  -0.000656  -0.000094
   94  C  9  Z    0.000069  -0.000079   0.000269  -0.000271   0.000045
   95  C  9  X    0.000000   0.000000   0.000000   0.000000   0.000000
   96  C  9  Y    0.010614  -0.009998   0.011983  -0.021493  -0.005095
   97  C  9  Z    0.004903  -0.003446   0.003947   0.011534   0.008087
   98  C  9 XX    0.000039  -0.000010  -0.000716   0.000461   0.000151
   99  C  9 YY   -0.000251   0.000107   0.000658  -0.000354  -0.000123
  100  C  9 ZZ    0.000212  -0.000097   0.000058  -0.000106  -0.000028
  101  C  9 XY    0.000000   0.000000   0.000000   0.000000   0.000000
  102  C  9 XZ    0.000000   0.000000   0.000000   0.000000   0.000000
  103  C  9 YZ   -0.000166   0.000091   0.000219  -0.000097   0.000196
  104  C  9  S    0.015922  -0.006973  -0.004345   0.011022   0.023446
  105  C  9  X    0.000000   0.000000   0.000000   0.000000   0.000000
  106  C  9  Y    0.001623  -0.003842   0.002577  -0.006638  -0.004910
  107  C  9  Z    0.001700  -0.002178   0.000618   0.001463   0.004125
  108  C  9 XX   -0.000794   0.001070   0.001455  -0.002521  -0.000619
  109  C  9 YY   -0.000288  -0.001522  -0.002940   0.002993  -0.000923
  110  C  9 ZZ    0.001082   0.000452   0.001485  -0.000471   0.001543
  111  C  9 XY    0.000000   0.000000   0.000000   0.000000   0.000000
  112  C  9 XZ    0.000000   0.000000   0.000000   0.000000   0.000000
  113  C  9 YZ    0.002662  -0.004125   0.003504  -0.005886  -0.000521
  114  C 10  S    0.000231   0.000177   0.708499   0.711197  -0.006069
  115  C 10  S    0.000327   0.000237   0.004763   0.005687  -0.000205
  116  C 10  S    0.005135   0.000725  -0.014673  -0.042243   0.013915
  117  C 10  X    0.000000   0.000000   0.000000   0.000000   0.000000
  118  C 10  Y   -0.000198  -0.000248  -0.000770  -0.000658   0.000094
  119  C 10  Z    0.000066   0.000082   0.000268   0.000272   0.000045
  120  C 10  X    0.000000   0.000000   0.000000   0.000000   0.000000
  121  C 10  Y   -0.010179  -0.010440  -0.011918  -0.021529   0.005095
  122  C 10  Z    0.004753   0.003651   0.003981  -0.011522   0.008087
  123  C 10 XX    0.000039   0.000012  -0.000715  -0.000463   0.000151
  124  C 10 YY   -0.000246  -0.000118   0.000657   0.000356  -0.000123
  125  C 10 ZZ    0.000208   0.000106   0.000057   0.000107  -0.000028
  126  C 10 XY    0.000000   0.000000   0.000000   0.000000   0.000000
  127  C 10 XZ    0.000000   0.000000   0.000000   0.000000   0.000000
  128  C 10 YZ    0.000162   0.000098  -0.000219  -0.000098  -0.000196
  129  C 10  S    0.015612   0.007643  -0.004312  -0.011035   0.023446
  130  C 10  X    0.000000   0.000000   0.000000   0.000000   0.000000
  131  C 10  Y   -0.001458  -0.003908  -0.002557  -0.006645   0.004910
  132  C 10  Z    0.001606   0.002248   0.000622  -0.001461   0.004125
  133  C 10 XX   -0.000748  -0.001103   0.001448   0.002526  -0.000619
  134  C 10 YY   -0.000352   0.001508  -0.002931  -0.003001  -0.000923
  135  C 10 ZZ    0.001100  -0.000405   0.001483   0.000476   0.001543
  136  C 10 XY    0.000000   0.000000   0.000000   0.000000   0.000000
  137  C 10 XZ    0.000000   0.000000   0.000000   0.000000   0.000000
  138  C 10 YZ   -0.002484  -0.004234  -0.003487  -0.005896   0.000521
  139  N 11  S    0.724023  -0.693926   0.000114  -0.000052  -0.000033
  140  N 11  S    0.003730  -0.003629   0.000612  -0.000519  -0.000086
  141  N 11  S   -0.016080   0.016448  -0.005128   0.003665  -0.000883
  142  N 11  X    0.000000   0.000000   0.000000   0.000000   0.000000
  143  N 11  Y   -0.000294   0.000278  -0.000209   0.000225   0.000051
  144  N 11  Z   -0.000114   0.000097  -0.000069   0.000097   0.000008
  145  N 11  X    0.000000   0.000000   0.000000   0.000000   0.000000
  146  N 11  Y    0.003805  -0.004167   0.003482  -0.001123   0.000730
  147  N 11  Z    0.000900  -0.001167   0.000707  -0.000711  -0.000898
  148  N 11 XX   -0.000198   0.000170   0.000240  -0.000176  -0.000002
  149  N 11 YY    0.000105  -0.000095  -0.000104   0.000069   0.000019
  150  N 11 ZZ    0.000093  -0.000075  -0.000136   0.000107  -0.000017
  151  N 11 XY    0.000000   0.000000   0.000000   0.000000   0.000000
  152  N 11 XZ    0.000000   0.000000   0.000000   0.000000   0.000000
  153  N 11 YZ    0.000018   0.000023  -0.000080  -0.000004   0.000002
  154  N 11  S   -0.013997   0.011806  -0.003609   0.007160  -0.003141
  155  N 11  X    0.000000   0.000000   0.000000   0.000000   0.000000
  156  N 11  Y    0.002385  -0.001536   0.001057  -0.001186   0.000943
  157  N 11  Z    0.000985  -0.000942   0.001050  -0.001151  -0.000863
  158  N 11 XX    0.000480  -0.000431   0.000025   0.000104  -0.000200
  159  N 11 YY   -0.000644   0.000798  -0.000970   0.000292  -0.000263
  160  N 11 ZZ    0.000165  -0.000366   0.000945  -0.000397   0.000463
  161  N 11 XY    0.000000   0.000000   0.000000   0.000000   0.000000
  162  N 11 XZ    0.000000   0.000000   0.000000   0.000000   0.000000
  163  N 11 YZ   -0.000337   0.000195  -0.000699   0.000804  -0.000254
  164  N 12  S    0.693891   0.724057   0.000114   0.000052  -0.000033
  165  N 12  S    0.003572   0.003785   0.000611   0.000521  -0.000086
  166  N 12  S   -0.015367  -0.017116  -0.005117  -0.003680  -0.000883
  167  N 12  X    0.000000   0.000000   0.000000   0.000000   0.000000
  168  N 12  Y    0.000282   0.000291   0.000208   0.000225  -0.000051
  169  N 12  Z   -0.000110  -0.000102  -0.000069  -0.000098   0.000008
  170  N 12  X    0.000000   0.000000   0.000000   0.000000   0.000000
  171  N 12  Y   -0.003624  -0.004325  -0.003479  -0.001134  -0.000730
  172  N 12  Z    0.000850   0.001204   0.000705   0.000713  -0.000898
  173  N 12 XX   -0.000191  -0.000178   0.000240   0.000177  -0.000002
  174  N 12 YY    0.000101   0.000100  -0.000104  -0.000069   0.000019
  175  N 12 ZZ    0.000090   0.000079  -0.000136  -0.000107  -0.000017
  176  N 12 XY    0.000000   0.000000   0.000000   0.000000   0.000000
  177  N 12 XZ    0.000000   0.000000   0.000000   0.000000   0.000000
  178  N 12 YZ   -0.000019   0.000022   0.000080  -0.000004  -0.000002
  179  N 12  S   -0.013483  -0.012390  -0.003588  -0.007170  -0.003141
  180  N 12  X    0.000000   0.000000   0.000000   0.000000   0.000000
  181  N 12  Y   -0.002318  -0.001636  -0.001054  -0.001189  -0.000943
  182  N 12  Z    0.000944   0.000983   0.001047   0.001154  -0.000863
  183  N 12 XX    0.000461   0.000451   0.000025  -0.000104  -0.000200
  184  N 12 YY   -0.000610  -0.000824  -0.000969  -0.000295  -0.000263
  185  N 12 ZZ    0.000149   0.000373   0.000944   0.000400   0.000463
  186  N 12 XY    0.000000   0.000000   0.000000   0.000000   0.000000
  187  N 12 XZ    0.000000   0.000000   0.000000   0.000000   0.000000
  188  N 12 YZ    0.000329   0.000209   0.000697   0.000806   0.000254

                      6          7          8          9         10
                   -1.4565    -1.4461    -1.2462    -1.0849    -1.0083
                     A          A          A          A          A   
    1  H  1  S    0.032898   0.000000  -0.097503   0.000000  -0.160586
    2  H  1  S    0.064317   0.000000  -0.105864   0.000000  -0.207778
    3  H  1  X    0.000000   0.000000   0.000000   0.000000   0.000000
    4  H  1  Y    0.000000   0.000383   0.000000   0.005287   0.000000
    5  H  1  Z   -0.006191   0.000000   0.014432   0.000000   0.015125
    6  H  1  S    0.001033   0.000000   0.033817   0.000000  -0.001251
    7  H  1  X    0.000000   0.000000   0.000000   0.000000   0.000000
    8  H  1  Y    0.000000   0.014677   0.000000  -0.021431   0.000000
    9  H  1  Z   -0.017410   0.000000   0.016399   0.000000   0.042187
   10  H  2  S    0.048389  -0.039989  -0.067761   0.126812   0.167005
   11  H  2  S    0.039231  -0.041683  -0.008607   0.139385   0.115104
   12  H  2  X    0.000000   0.000000   0.000000   0.000000   0.000000
   13  H  2  Y    0.001072  -0.000961   0.002821  -0.000443   0.002550
   14  H  2  Z    0.009088  -0.007052  -0.008364   0.013364   0.014666
   15  H  2  S    0.006177   0.005453  -0.019596  -0.009004   0.002260
   16  H  2  X    0.000000   0.000000   0.000000   0.000000   0.000000
   17  H  2  Y   -0.013453   0.019539  -0.009261  -0.003159   0.002416
   18  H  2  Z    0.010240  -0.012208   0.011674   0.021814   0.017882
   19  H  3  S    0.048389   0.039989  -0.067761  -0.126812   0.167005
   20  H  3  S    0.039231   0.041683  -0.008607  -0.139385   0.115104
   21  H  3  X    0.000000   0.000000   0.000000   0.000000   0.000000
   22  H  3  Y   -0.001072  -0.000961  -0.002821  -0.000443  -0.002550
   23  H  3  Z    0.009088   0.007052  -0.008364  -0.013364   0.014666
   24  H  3  S    0.006177  -0.005453  -0.019596   0.009004   0.002260
   25  H  3  X    0.000000   0.000000   0.000000   0.000000   0.000000
   26  H  3  Y    0.013453   0.019539   0.009261  -0.003159  -0.002416
   27  H  3  Z    0.010240   0.012208   0.011674  -0.021814   0.017882
   28  H  4  S    0.100672  -0.107851   0.075096  -0.133468  -0.174072
   29  H  4  S    0.044352  -0.046690  -0.015672  -0.013802  -0.053928
   30  H  4  X    0.000000   0.000000   0.000000   0.000000   0.000000
   31  H  4  Y   -0.004035   0.004333  -0.002267  -0.000479   0.000143
   32  H  4  Z   -0.017458   0.018794  -0.012364   0.018017   0.018512
   33  H  4  S   -0.000544   0.002613   0.000101  -0.000472   0.008912
   34  H  4  X    0.000000   0.000000   0.000000   0.000000   0.000000
   35  H  4  Y   -0.002773   0.005317  -0.003567   0.008707   0.000758
   36  H  4  Z   -0.013614   0.013508   0.004541   0.000825   0.012834
   37  H  5  S    0.100672   0.107851   0.075096   0.133468  -0.174072
   38  H  5  S    0.044352   0.046690  -0.015672   0.013802  -0.053928
   39  H  5  X    0.000000   0.000000   0.000000   0.000000   0.000000
   40  H  5  Y    0.004035   0.004333   0.002267  -0.000479  -0.000143
   41  H  5  Z   -0.017458  -0.018794  -0.012364  -0.018017   0.018512
   42  H  5  S   -0.000544  -0.002613   0.000101   0.000472   0.008912
   43  H  5  X    0.000000   0.000000   0.000000   0.000000   0.000000
   44  H  5  Y    0.002773   0.005317   0.003567   0.008707  -0.000758
   45  H  5  Z   -0.013614  -0.013508   0.004541  -0.000825   0.012834
   46  H  6  S    0.099792  -0.108445   0.094249  -0.137189  -0.006104
   47  H  6  S    0.006888  -0.021645   0.045567  -0.030327   0.007717
   48  H  6  X    0.000000   0.000000   0.000000   0.000000   0.000000
   49  H  6  Y   -0.015851   0.017110  -0.010534   0.012600  -0.000464
   50  H  6  Z    0.008723  -0.009854   0.009592  -0.012868  -0.004271
   51  H  6  S   -0.003522   0.002084  -0.005237  -0.001017  -0.006686
   52  H  6  X    0.000000   0.000000   0.000000   0.000000   0.000000
   53  H  6  Y    0.001551   0.004948  -0.014191   0.013253   0.007957
   54  H  6  Z    0.001795  -0.003505   0.005266   0.006525   0.013724
   55  H  7  S    0.099792   0.108445   0.094249   0.137189  -0.006104
   56  H  7  S    0.006888   0.021645   0.045567   0.030327   0.007717
   57  H  7  X    0.000000   0.000000   0.000000   0.000000   0.000000
   58  H  7  Y    0.015851   0.017110   0.010534   0.012600   0.000464
   59  H  7  Z    0.008723   0.009854   0.009592   0.012868  -0.004271
   60  H  7  S   -0.003522  -0.002084  -0.005237   0.001017  -0.006686
   61  H  7  X    0.000000   0.000000   0.000000   0.000000   0.000000
   62  H  7  Y   -0.001551   0.004948   0.014191   0.013253  -0.007957
   63  H  7  Z    0.001795   0.003505   0.005266  -0.006525   0.013724
   64  C  8  S   -0.008605   0.000000   0.024490   0.000000   0.011616
   65  C  8  S    0.094650   0.000000  -0.287888   0.000000  -0.176016
   66  C  8  S   -0.253669   0.000000  -0.164911   0.000000  -0.223916
   67  C  8  X    0.000000   0.000000   0.000000   0.000000   0.000000
   68  C  8  Y    0.000000  -0.054032   0.000000   0.185209   0.000000
   69  C  8  Z   -0.024537   0.000000   0.081389   0.000000  -0.078741
   70  C  8  X    0.000000   0.000000   0.000000   0.000000   0.000000
   71  C  8  Y    0.000000   0.225009   0.000000  -0.210149   0.000000
   72  C  8  Z    0.081190   0.000000  -0.031516   0.000000   0.091800
   73  C  8 XX   -0.004159   0.000000   0.011622   0.000000   0.003386
   74  C  8 YY    0.012120   0.000000  -0.010397   0.000000  -0.000133
   75  C  8 ZZ   -0.007960   0.000000  -0.001225   0.000000  -0.003252
   76  C  8 XY    0.000000   0.000000   0.000000   0.000000   0.000000
   77  C  8 XZ    0.000000   0.000000   0.000000   0.000000   0.000000
   78  C  8 YZ    0.000000   0.006388   0.000000  -0.021856   0.000000
   79  C  8  S   -0.024565   0.000000   0.414704   0.000000   0.315984
   80  C  8  X    0.000000   0.000000   0.000000   0.000000   0.000000
   81  C  8  Y    0.000000  -0.023109   0.000000   0.029628   0.000000
   82  C  8  Z   -0.005552   0.000000  -0.065217   0.000000  -0.031212
   83  C  8 XX   -0.010850   0.000000  -0.004687   0.000000  -0.002612
   84  C  8 YY    0.060527   0.000000  -0.066811   0.000000  -0.053631
   85  C  8 ZZ   -0.049677   0.000000   0.071498   0.000000   0.056243
   86  C  8 XY    0.000000   0.000000   0.000000   0.000000   0.000000
   87  C  8 XZ    0.000000   0.000000   0.000000   0.000000   0.000000
   88  C  8 YZ    0.000000  -0.075730   0.000000   0.098297   0.000000
   89  C  9  S   -0.014801   0.013347   0.006761  -0.006499  -0.000940
   90  C  9  S    0.162871  -0.143712  -0.160969   0.244282   0.131346
   91  C  9  S    0.048293  -0.194807  -0.119079   0.390842   0.152580
   92  C  9  X    0.000000   0.000000   0.000000   0.000000   0.000000
   93  C  9  Y    0.065314  -0.090834   0.157575  -0.020458   0.127611
   94  C  9  Z    0.045939  -0.042671  -0.024042   0.003876  -0.142504
   95  C  9  X    0.000000   0.000000   0.000000   0.000000   0.000000
   96  C  9  Y   -0.141509   0.170354   0.022215  -0.139613  -0.000766
   97  C  9  Z   -0.023885  -0.055365   0.046743   0.111029   0.066053
   98  C  9 XX   -0.012817   0.011737   0.006143  -0.008047  -0.002978
   99  C  9 YY    0.020926  -0.015900  -0.006016   0.000315   0.002692
  100  C  9 ZZ   -0.008109   0.004164  -0.000126   0.007732   0.000286
  101  C  9 XY    0.000000   0.000000   0.000000   0.000000   0.000000
  102  C  9 XZ    0.000000   0.000000   0.000000   0.000000   0.000000
  103  C  9 YZ    0.009425  -0.011562   0.019388  -0.006023   0.010167
  104  C  9  S    0.021022   0.021845  -0.206876  -0.184576  -0.182536
  105  C  9  X    0.000000   0.000000   0.000000   0.000000   0.000000
  106  C  9  Y    0.010304  -0.015460   0.048292   0.062086   0.036413
  107  C  9  Z    0.011215   0.001328  -0.046781   0.000226  -0.019764
  108  C  9 XX    0.000313  -0.003533   0.004666   0.000307   0.001616
  109  C  9 YY    0.030134  -0.000980  -0.060737   0.043942   0.015355
  110  C  9 ZZ   -0.030447   0.004513   0.056071  -0.044249  -0.016971
  111  C  9 XY    0.000000   0.000000   0.000000   0.000000   0.000000
  112  C  9 XZ    0.000000   0.000000   0.000000   0.000000   0.000000
  113  C  9 YZ   -0.059709   0.082478  -0.022471  -0.025403  -0.003288
  114  C 10  S   -0.014801  -0.013347   0.006761   0.006499  -0.000940
  115  C 10  S    0.162871   0.143712  -0.160969  -0.244282   0.131346
  116  C 10  S    0.048293   0.194807  -0.119079  -0.390842   0.152580
  117  C 10  X    0.000000   0.000000   0.000000   0.000000   0.000000
  118  C 10  Y   -0.065314  -0.090835  -0.157575  -0.020458  -0.127611
  119  C 10  Z    0.045939   0.042671  -0.024042  -0.003876  -0.142504
  120  C 10  X    0.000000   0.000000   0.000000   0.000000   0.000000
  121  C 10  Y    0.141509   0.170354  -0.022215  -0.139613   0.000766
  122  C 10  Z   -0.023885   0.055365   0.046743  -0.111029   0.066053
  123  C 10 XX   -0.012817  -0.011737   0.006143   0.008047  -0.002978
  124  C 10 YY    0.020926   0.015900  -0.006016  -0.000315   0.002692
  125  C 10 ZZ   -0.008109  -0.004164  -0.000126  -0.007732   0.000286
  126  C 10 XY    0.000000   0.000000   0.000000   0.000000   0.000000
  127  C 10 XZ    0.000000   0.000000   0.000000   0.000000   0.000000
  128  C 10 YZ   -0.009425  -0.011562  -0.019388  -0.006023  -0.010167
  129  C 10  S    0.021022  -0.021845  -0.206876   0.184576  -0.182536
  130  C 10  X    0.000000   0.000000   0.000000   0.000000   0.000000
  131  C 10  Y   -0.010304  -0.015460  -0.048292   0.062086  -0.036413
  132  C 10  Z    0.011215  -0.001328  -0.046781  -0.000226  -0.019764
  133  C 10 XX    0.000313   0.003533   0.004666  -0.000307   0.001616
  134  C 10 YY    0.030134   0.000980  -0.060737  -0.043942   0.015355
  135  C 10 ZZ   -0.030447  -0.004513   0.056071   0.044249  -0.016971
  136  C 10 XY    0.000000   0.000000   0.000000   0.000000   0.000000
  137  C 10 XZ    0.000000   0.000000   0.000000   0.000000   0.000000
  138  C 10 YZ    0.059709   0.082478   0.022471  -0.025403   0.003288
  139  N 11  S   -0.013367   0.013674  -0.004618   0.001982   0.000228
  140  N 11  S    0.250904  -0.267277   0.136672  -0.115591  -0.042871
  141  N 11  S    0.267062  -0.286212   0.149156  -0.100846  -0.047732
  142  N 11  X    0.000000   0.000000   0.000000   0.000000   0.000000
  143  N 11  Y   -0.046996   0.045127   0.054231  -0.182360  -0.100200
  144  N 11  Z   -0.019195   0.019986   0.005964  -0.075661  -0.185141
  145  N 11  X    0.000000   0.000000   0.000000   0.000000   0.000000
  146  N 11  Y   -0.081949   0.080601   0.001045  -0.055334  -0.030148
  147  N 11  Z   -0.019088   0.026603  -0.018062  -0.020705  -0.064659
  148  N 11 XX   -0.007549   0.007866  -0.001919   0.000024  -0.000133
  149  N 11 YY    0.008132  -0.007847  -0.002369   0.007401   0.005270
  150  N 11 ZZ   -0.000583  -0.000019   0.004288  -0.007426  -0.005137
  151  N 11 XY    0.000000   0.000000   0.000000   0.000000   0.000000
  152  N 11 XZ    0.000000   0.000000   0.000000   0.000000   0.000000
  153  N 11 YZ    0.004358  -0.005158  -0.001439   0.009671   0.007467
  154  N 11  S   -0.028640   0.029330   0.029716   0.023044   0.029153
  155  N 11  X    0.000000   0.000000   0.000000   0.000000   0.000000
  156  N 11  Y    0.001847  -0.004196  -0.005765  -0.030697  -0.017064
  157  N 11  Z   -0.001639   0.001093   0.015354  -0.009771  -0.003499
  158  N 11 XX    0.014666  -0.015848   0.009941  -0.010395  -0.008001
  159  N 11 YY    0.006620  -0.004315  -0.010100  -0.005553  -0.021359
  160  N 11 ZZ   -0.021286   0.020164   0.000159   0.015948   0.029359
  161  N 11 XY    0.000000   0.000000   0.000000   0.000000   0.000000
  162  N 11 XZ    0.000000   0.000000   0.000000   0.000000   0.000000
  163  N 11 YZ    0.008041  -0.009891   0.017645  -0.015572   0.009365
  164  N 12  S   -0.013367  -0.013674  -0.004618  -0.001982   0.000228
  165  N 12  S    0.250904   0.267278   0.136672   0.115591  -0.042871
  166  N 12  S    0.267062   0.286212   0.149156   0.100846  -0.047732
  167  N 12  X    0.000000   0.000000   0.000000   0.000000   0.000000
  168  N 12  Y    0.046996   0.045127  -0.054231  -0.182360   0.100200
  169  N 12  Z   -0.019195  -0.019986   0.005964   0.075661  -0.185141
  170  N 12  X    0.000000   0.000000   0.000000   0.000000   0.000000
  171  N 12  Y    0.081949   0.080601  -0.001045  -0.055334   0.030148
  172  N 12  Z   -0.019088  -0.026603  -0.018062   0.020705  -0.064659
  173  N 12 XX   -0.007549  -0.007866  -0.001919  -0.000024  -0.000133
  174  N 12 YY    0.008132   0.007847  -0.002369  -0.007401   0.005270
  175  N 12 ZZ   -0.000583   0.000019   0.004288   0.007426  -0.005137
  176  N 12 XY    0.000000   0.000000   0.000000   0.000000   0.000000
  177  N 12 XZ    0.000000   0.000000   0.000000   0.000000   0.000000
  178  N 12 YZ   -0.004358  -0.005158   0.001439   0.009671  -0.007467
  179  N 12  S   -0.028640  -0.029330   0.029716  -0.023044   0.029153
  180  N 12  X    0.000000   0.000000   0.000000   0.000000   0.000000
  181  N 12  Y   -0.001847  -0.004196   0.005765  -0.030697   0.017064
  182  N 12  Z   -0.001639  -0.001093   0.015354   0.009771  -0.003499
  183  N 12 XX    0.014666   0.015848   0.009941   0.010395  -0.008001
  184  N 12 YY    0.006620   0.004315  -0.010100   0.005553  -0.021359
  185  N 12 ZZ   -0.021286  -0.020164   0.000159  -0.015948   0.029359
  186  N 12 XY    0.000000   0.000000   0.000000   0.000000   0.000000
  187  N 12 XZ    0.000000   0.000000   0.000000   0.000000   0.000000
  188  N 12 YZ   -0.008041  -0.009891  -0.017645  -0.015572  -0.009365

                     11         12         13         14         15
                   -0.9438    -0.9285    -0.8616    -0.8365    -0.7688
                     A          A          A          A          A   
    1  H  1  S    0.000000  -0.068736  -0.238402   0.000000   0.000000
    2  H  1  S    0.000000  -0.018373  -0.220742   0.000000   0.000000
    3  H  1  X    0.000000   0.000000   0.000000   0.000000   0.000000
    4  H  1  Y    0.004846   0.000000   0.000000  -0.005626   0.004259
    5  H  1  Z    0.000000   0.005661   0.019550   0.000000   0.000000
    6  H  1  S    0.000000   0.046028   0.015296   0.000000   0.000000
    7  H  1  X    0.000000   0.000000   0.000000   0.000000   0.000000
    8  H  1  Y   -0.002400   0.000000   0.000000   0.039493  -0.028630
    9  H  1  Z    0.000000  -0.005929   0.036060   0.000000   0.000000
   10  H  2  S   -0.121896   0.098431   0.095290  -0.160172  -0.208257
   11  H  2  S   -0.168220   0.103993   0.047211  -0.131183  -0.125878
   12  H  2  X    0.000000   0.000000   0.000000   0.000000   0.000000
   13  H  2  Y   -0.001494  -0.004236   0.000285   0.005226  -0.005702
   14  H  2  Z   -0.008974   0.006928   0.007948  -0.012950  -0.013748
   15  H  2  S   -0.022179  -0.003261  -0.006291  -0.035329  -0.001611
   16  H  2  X    0.000000   0.000000   0.000000   0.000000   0.000000
   17  H  2  Y   -0.003090   0.014993  -0.004949  -0.017252   0.016246
   18  H  2  Z   -0.044370   0.025312   0.004587  -0.027194  -0.015830
   19  H  3  S    0.121896   0.098431   0.095290   0.160172   0.208257
   20  H  3  S    0.168220   0.103993   0.047211   0.131183   0.125878
   21  H  3  X    0.000000   0.000000   0.000000   0.000000   0.000000
   22  H  3  Y   -0.001494   0.004236  -0.000285   0.005226  -0.005702
   23  H  3  Z    0.008974   0.006928   0.007948   0.012950   0.013748
   24  H  3  S    0.022179  -0.003261  -0.006291   0.035329   0.001611
   25  H  3  X    0.000000   0.000000   0.000000   0.000000   0.000000
   26  H  3  Y   -0.003090  -0.014993   0.004949  -0.017252   0.016246
   27  H  3  Z    0.044370   0.025312   0.004587   0.027194   0.015830
   28  H  4  S    0.191424   0.017631   0.214261  -0.104218  -0.156111
   29  H  4  S    0.093817  -0.039693   0.114851  -0.073349  -0.142919
   30  H  4  X    0.000000   0.000000   0.000000   0.000000   0.000000
   31  H  4  Y   -0.004668   0.006186  -0.004514  -0.004999   0.005079
   32  H  4  Z   -0.016849  -0.003383  -0.018228   0.008677   0.011015
   33  H  4  S   -0.001268  -0.005830  -0.001957   0.013380   0.001790
   34  H  4  X    0.000000   0.000000   0.000000   0.000000   0.000000
   35  H  4  Y    0.006508  -0.014637  -0.005956   0.025506   0.007012
   36  H  4  Z   -0.023705   0.013144  -0.030845   0.016552   0.044392
   37  H  5  S   -0.191424   0.017631   0.214261   0.104218   0.156111
   38  H  5  S   -0.093817  -0.039693   0.114851   0.073349   0.142919
   39  H  5  X    0.000000   0.000000   0.000000   0.000000   0.000000
   40  H  5  Y   -0.004668  -0.006186   0.004514  -0.004999   0.005079
   41  H  5  Z    0.016849  -0.003383  -0.018228  -0.008677  -0.011015
   42  H  5  S    0.001268  -0.005830  -0.001957  -0.013380  -0.001790
   43  H  5  X    0.000000   0.000000   0.000000   0.000000   0.000000
   44  H  5  Y    0.006508   0.014637   0.005956   0.025506   0.007012
   45  H  5  Z    0.023705   0.013144  -0.030845  -0.016552  -0.044392
   46  H  6  S   -0.184183   0.219845  -0.173167  -0.099563   0.166358
   47  H  6  S   -0.086096   0.074011  -0.113358  -0.042690   0.142347
   48  H  6  X    0.000000   0.000000   0.000000   0.000000   0.000000
   49  H  6  Y    0.015067  -0.014656   0.013971   0.003195  -0.011488
   50  H  6  Z   -0.007816   0.014866  -0.004920  -0.009363   0.004189
   51  H  6  S    0.006584  -0.002748  -0.003101   0.007271   0.003879
   52  H  6  X    0.000000   0.000000   0.000000   0.000000   0.000000
   53  H  6  Y    0.008067  -0.019268   0.018185   0.019235  -0.035969
   54  H  6  Z   -0.023878   0.006196  -0.025321   0.005702   0.022832
   55  H  7  S    0.184183   0.219845  -0.173167   0.099563  -0.166358
   56  H  7  S    0.086096   0.074011  -0.113358   0.042690  -0.142347
   57  H  7  X    0.000000   0.000000   0.000000   0.000000   0.000000
   58  H  7  Y    0.015067   0.014656  -0.013971   0.003195  -0.011488
   59  H  7  Z    0.007816   0.014866  -0.004920   0.009363  -0.004189
   60  H  7  S   -0.006584  -0.002748  -0.003101  -0.007271  -0.003879
   61  H  7  X    0.000000   0.000000   0.000000   0.000000   0.000000
   62  H  7  Y    0.008067   0.019268  -0.018185   0.019235  -0.035969
   63  H  7  Z    0.023878   0.006196  -0.025321  -0.005702  -0.022832
   64  C  8  S    0.000000  -0.006900   0.007809   0.000000   0.000000
   65  C  8  S    0.000000   0.028214  -0.115977   0.000000   0.000000
   66  C  8  S    0.000000   0.035924   0.017241   0.000000   0.000000
   67  C  8  X    0.000000   0.000000   0.000000   0.000000   0.000000
   68  C  8  Y    0.158121   0.000000   0.000000  -0.207858   0.285572
   69  C  8  Z    0.000000  -0.124774  -0.207367   0.000000   0.000000
   70  C  8  X    0.000000   0.000000   0.000000   0.000000   0.000000
   71  C  8  Y    0.193348   0.000000   0.000000  -0.234120  -0.066493
   72  C  8  Z    0.000000  -0.040301  -0.059962   0.000000   0.000000
   73  C  8 XX    0.000000  -0.001801  -0.000582   0.000000   0.000000
   74  C  8 YY    0.000000  -0.007982   0.002755   0.000000   0.000000
   75  C  8 ZZ    0.000000   0.009783  -0.002173   0.000000   0.000000
   76  C  8 XY    0.000000   0.000000   0.000000   0.000000   0.000000
   77  C  8 XZ    0.000000   0.000000   0.000000   0.000000   0.000000
   78  C  8 YZ   -0.009491   0.000000   0.000000   0.032302  -0.009255
   79  C  8  S    0.000000   0.329005   0.323419   0.000000   0.000000
   80  C  8  X    0.000000   0.000000   0.000000   0.000000   0.000000
   81  C  8  Y    0.081079   0.000000   0.000000  -0.026597   0.025369
   82  C  8  Z    0.000000  -0.079382  -0.034519   0.000000   0.000000
   83  C  8 XX    0.000000  -0.010899   0.002232   0.000000   0.000000
   84  C  8 YY    0.000000   0.003871  -0.087440   0.000000   0.000000
   85  C  8 ZZ    0.000000   0.007028   0.085207   0.000000   0.000000
   86  C  8 XY    0.000000   0.000000   0.000000   0.000000   0.000000
   87  C  8 XZ    0.000000   0.000000   0.000000   0.000000   0.000000
   88  C  8 YZ   -0.023328   0.000000   0.000000  -0.032915   0.062185
   89  C  9  S    0.001227  -0.003897  -0.000325   0.003824   0.000041
   90  C  9  S    0.000734  -0.033252   0.049616  -0.074017   0.008435
   91  C  9  S   -0.040837  -0.096192   0.056776   0.082786   0.188154
   92  C  9  X    0.000000   0.000000   0.000000   0.000000   0.000000
   93  C  9  Y   -0.086547  -0.197030  -0.071055   0.288095  -0.133181
   94  C  9  Z    0.178345  -0.149372  -0.072992   0.127203   0.253933
   95  C  9  X    0.000000   0.000000   0.000000   0.000000   0.000000
   96  C  9  Y    0.059423  -0.054106   0.064444   0.091965  -0.134115
   97  C  9  Z   -0.090378   0.008092   0.001531   0.090836   0.145803
   98  C  9 XX    0.000605   0.003116   0.001608  -0.004447  -0.001213
   99  C  9 YY   -0.005633  -0.005350  -0.011182   0.022994   0.014542
  100  C  9 ZZ    0.005028   0.002234   0.009573  -0.018546  -0.013329
  101  C  9 XY    0.000000   0.000000   0.000000   0.000000   0.000000
  102  C  9 XZ    0.000000   0.000000   0.000000   0.000000   0.000000
  103  C  9 YZ    0.002875  -0.018818   0.012756   0.024373  -0.021194
  104  C  9  S    0.008632  -0.228605  -0.178411  -0.047374   0.048773
  105  C  9  X    0.000000   0.000000   0.000000   0.000000   0.000000
  106  C  9  Y   -0.046661   0.019728   0.025038   0.018258  -0.043946
  107  C  9  Z   -0.032735  -0.023106  -0.030771  -0.028846  -0.003673
  108  C  9 XX    0.003064  -0.002703  -0.000070  -0.006357  -0.003873
  109  C  9 YY   -0.005904   0.012432   0.007129  -0.039362  -0.035043
  110  C  9 ZZ    0.002839  -0.009729  -0.007059   0.045719   0.038917
  111  C  9 XY    0.000000   0.000000   0.000000   0.000000   0.000000
  112  C  9 XZ    0.000000   0.000000   0.000000   0.000000   0.000000
  113  C  9 YZ    0.004552   0.016454  -0.002888  -0.030879   0.008582
  114  C 10  S   -0.001227  -0.003897  -0.000325  -0.003824  -0.000041
  115  C 10  S   -0.000734  -0.033252   0.049616   0.074017  -0.008435
  116  C 10  S    0.040837  -0.096192   0.056776  -0.082786  -0.188154
  117  C 10  X    0.000000   0.000000   0.000000   0.000000   0.000000
  118  C 10  Y   -0.086547   0.197029   0.071055   0.288095  -0.133181
  119  C 10  Z   -0.178345  -0.149372  -0.072992  -0.127203  -0.253933
  120  C 10  X    0.000000   0.000000   0.000000   0.000000   0.000000
  121  C 10  Y    0.059423   0.054106  -0.064444   0.091965  -0.134115
  122  C 10  Z    0.090378   0.008092   0.001531  -0.090836  -0.145803
  123  C 10 XX   -0.000605   0.003116   0.001608   0.004447   0.001213
  124  C 10 YY    0.005633  -0.005350  -0.011182  -0.022994  -0.014542
  125  C 10 ZZ   -0.005028   0.002234   0.009573   0.018546   0.013329
  126  C 10 XY    0.000000   0.000000   0.000000   0.000000   0.000000
  127  C 10 XZ    0.000000   0.000000   0.000000   0.000000   0.000000
  128  C 10 YZ    0.002875   0.018818  -0.012756   0.024373  -0.021194
  129  C 10  S   -0.008632  -0.228605  -0.178411   0.047374  -0.048773
  130  C 10  X    0.000000   0.000000   0.000000   0.000000   0.000000
  131  C 10  Y   -0.046661  -0.019728  -0.025038   0.018258  -0.043946
  132  C 10  Z    0.032735  -0.023106  -0.030771   0.028846   0.003673
  133  C 10 XX   -0.003064  -0.002703  -0.000070   0.006357   0.003873
  134  C 10 YY    0.005904   0.012432   0.007129   0.039362   0.035043
  135  C 10 ZZ   -0.002839  -0.009729  -0.007059  -0.045719  -0.038917
  136  C 10 XY    0.000000   0.000000   0.000000   0.000000   0.000000
  137  C 10 XZ    0.000000   0.000000   0.000000   0.000000   0.000000
  138  C 10 YZ    0.004552  -0.016454   0.002888  -0.030879   0.008582
  139  N 11  S    0.000065  -0.000678  -0.000091   0.001309   0.000480
  140  N 11  S    0.001150   0.012894  -0.000825   0.035286  -0.000883
  141  N 11  S    0.002054  -0.006590  -0.037708   0.057774   0.013063
  142  N 11  X    0.000000   0.000000   0.000000   0.000000   0.000000
  143  N 11  Y   -0.104300   0.300418  -0.057732  -0.246517   0.088336
  144  N 11  Z    0.256445  -0.029043   0.262735  -0.109219  -0.173740
  145  N 11  X    0.000000   0.000000   0.000000   0.000000   0.000000
  146  N 11  Y   -0.043613   0.114108  -0.013047  -0.077806   0.041050
  147  N 11  Z    0.097898  -0.006611   0.101612  -0.041832  -0.069587
  148  N 11 XX   -0.000119   0.000336   0.000327   0.000346  -0.000207
  149  N 11 YY   -0.003456  -0.005554  -0.009738   0.007500   0.012459
  150  N 11 ZZ    0.003575   0.005218   0.009410  -0.007846  -0.012252
  151  N 11 XY    0.000000   0.000000   0.000000   0.000000   0.000000
  152  N 11 XZ    0.000000   0.000000   0.000000   0.000000   0.000000
  153  N 11 YZ    0.003651  -0.012859   0.007479   0.007933  -0.013887
  154  N 11  S   -0.000756   0.068716   0.041554   0.080485   0.007785
  155  N 11  X    0.000000   0.000000   0.000000   0.000000   0.000000
  156  N 11  Y    0.017136   0.006085   0.001744  -0.048971   0.008278
  157  N 11  Z   -0.006383   0.010511   0.005945  -0.008148  -0.006298
  158  N 11 XX   -0.000673   0.002821  -0.005061   0.004035   0.004385
  159  N 11 YY    0.036579  -0.004337   0.033881  -0.022798  -0.019107
  160  N 11 ZZ   -0.035906   0.001516  -0.028821   0.018764   0.014723
  161  N 11 XY    0.000000   0.000000   0.000000   0.000000   0.000000
  162  N 11 XZ    0.000000   0.000000   0.000000   0.000000   0.000000
  163  N 11 YZ   -0.035468   0.036033  -0.023787  -0.019063   0.019994
  164  N 12  S   -0.000065  -0.000678  -0.000091  -0.001309  -0.000480
  165  N 12  S   -0.001150   0.012894  -0.000825  -0.035286   0.000883
  166  N 12  S   -0.002054  -0.006590  -0.037708  -0.057774  -0.013063
  167  N 12  X    0.000000   0.000000   0.000000   0.000000   0.000000
  168  N 12  Y   -0.104300  -0.300418   0.057732  -0.246517   0.088336
  169  N 12  Z   -0.256445  -0.029043   0.262735   0.109219   0.173740
  170  N 12  X    0.000000   0.000000   0.000000   0.000000   0.000000
  171  N 12  Y   -0.043613  -0.114108   0.013047  -0.077806   0.041050
  172  N 12  Z   -0.097898  -0.006611   0.101612   0.041832   0.069587
  173  N 12 XX    0.000119   0.000336   0.000327  -0.000346   0.000207
  174  N 12 YY    0.003456  -0.005554  -0.009738  -0.007500  -0.012459
  175  N 12 ZZ   -0.003575   0.005218   0.009410   0.007846   0.012252
  176  N 12 XY    0.000000   0.000000   0.000000   0.000000   0.000000
  177  N 12 XZ    0.000000   0.000000   0.000000   0.000000   0.000000
  178  N 12 YZ    0.003651   0.012859  -0.007479   0.007933  -0.013887
  179  N 12  S    0.000756   0.068716   0.041553  -0.080485  -0.007785
  180  N 12  X    0.000000   0.000000   0.000000   0.000000   0.000000
  181  N 12  Y    0.017136  -0.006085  -0.001744  -0.048971   0.008278
  182  N 12  Z    0.006383   0.010511   0.005945   0.008148   0.006298
  183  N 12 XX    0.000673   0.002821  -0.005061  -0.004035  -0.004385
  184  N 12 YY   -0.036579  -0.004337   0.033881   0.022798   0.019108
  185  N 12 ZZ    0.035906   0.001516  -0.028821  -0.018764  -0.014723
  186  N 12 XY    0.000000   0.000000   0.000000   0.000000   0.000000
  187  N 12 XZ    0.000000   0.000000   0.000000   0.000000   0.000000
  188  N 12 YZ   -0.035468  -0.036033   0.023787  -0.019063   0.019994

                     16         17         18         19         20
                   -0.7301    -0.7279    -0.6892    -0.5138    -0.0862
                     A          A          A          A          A   
    1  H  1  S    0.000000   0.316324   0.000000   0.000000   0.000000
    2  H  1  S    0.000000   0.410788   0.000000   0.000000   0.000000
    3  H  1  X    0.007713   0.000000   0.000000   0.014911   0.000000
    4  H  1  Y    0.000000   0.000000   0.000000   0.000000   0.000000
    5  H  1  Z    0.000000  -0.014156   0.000000   0.000000   0.000000
    6  H  1  S    0.000000   0.058412   0.000000   0.000000   0.000000
    7  H  1  X   -0.008263   0.000000   0.000000   0.004115   0.000000
    8  H  1  Y    0.000000   0.000000   0.000000   0.000000   0.000000
    9  H  1  Z    0.000000  -0.082639   0.000000   0.000000   0.000000
   10  H  2  S    0.000000   0.208287   0.000000   0.000000   0.000000
   11  H  2  S    0.000000   0.210135   0.000000   0.000000   0.000000
   12  H  2  X    0.007797   0.000000  -0.005228   0.004615   0.016209
   13  H  2  Y    0.000000   0.001137   0.000000   0.000000   0.000000
   14  H  2  Z    0.000000   0.009042   0.000000   0.000000   0.000000
   15  H  2  S    0.000000   0.012897   0.000000   0.000000   0.000000
   16  H  2  X   -0.007946   0.000000   0.012256   0.002450   0.048369
   17  H  2  Y    0.000000   0.002193   0.000000   0.000000   0.000000
   18  H  2  Z    0.000000   0.041265   0.000000   0.000000   0.000000
   19  H  3  S    0.000000   0.208287   0.000000   0.000000   0.000000
   20  H  3  S    0.000000   0.210135   0.000000   0.000000   0.000000
   21  H  3  X    0.007797   0.000000   0.005228   0.004615  -0.016209
   22  H  3  Y    0.000000  -0.001137   0.000000   0.000000   0.000000
   23  H  3  Z    0.000000   0.009042   0.000000   0.000000   0.000000
   24  H  3  S    0.000000   0.012897   0.000000   0.000000   0.000000
   25  H  3  X   -0.007946   0.000000  -0.012256   0.002450  -0.048369
   26  H  3  Y    0.000000  -0.002193   0.000000   0.000000   0.000000
   27  H  3  Z    0.000000   0.041265   0.000000   0.000000   0.000000
   28  H  4  S    0.000000   0.090299   0.000000   0.000000   0.000000
   29  H  4  S    0.000000   0.070223   0.000000   0.000000   0.000000
   30  H  4  X    0.011838   0.000000  -0.014735  -0.012033  -0.013772
   31  H  4  Y    0.000000  -0.002287   0.000000   0.000000   0.000000
   32  H  4  Z    0.000000  -0.004018   0.000000   0.000000   0.000000
   33  H  4  S    0.000000  -0.009367   0.000000   0.000000   0.000000
   34  H  4  X    0.004033   0.000000  -0.003243  -0.002784  -0.019539
   35  H  4  Y    0.000000  -0.002079   0.000000   0.000000   0.000000
   36  H  4  Z    0.000000  -0.019004   0.000000   0.000000   0.000000
   37  H  5  S    0.000000   0.090299   0.000000   0.000000   0.000000
   38  H  5  S    0.000000   0.070223   0.000000   0.000000   0.000000
   39  H  5  X    0.011838   0.000000   0.014735  -0.012033   0.013772
   40  H  5  Y    0.000000   0.002287   0.000000   0.000000   0.000000
   41  H  5  Z    0.000000  -0.004018   0.000000   0.000000   0.000000
   42  H  5  S    0.000000  -0.009367   0.000000   0.000000   0.000000
   43  H  5  X    0.004033   0.000000   0.003243  -0.002784   0.019539
   44  H  5  Y    0.000000   0.002079   0.000000   0.000000   0.000000
   45  H  5  Z    0.000000  -0.019004   0.000000   0.000000   0.000000
   46  H  6  S    0.000000  -0.055186   0.000000   0.000000   0.000000
   47  H  6  S    0.000000  -0.074387   0.000000   0.000000   0.000000
   48  H  6  X    0.011656   0.000000  -0.015103  -0.013300  -0.013036
   49  H  6  Y    0.000000   0.005440   0.000000   0.000000   0.000000
   50  H  6  Z    0.000000   0.000788   0.000000   0.000000   0.000000
   51  H  6  S    0.000000  -0.001952   0.000000   0.000000   0.000000
   52  H  6  X    0.002543   0.000000  -0.005086  -0.007264  -0.020705
   53  H  6  Y    0.000000   0.021872   0.000000   0.000000   0.000000
   54  H  6  Z    0.000000  -0.009802   0.000000   0.000000   0.000000
   55  H  7  S    0.000000  -0.055186   0.000000   0.000000   0.000000
   56  H  7  S    0.000000  -0.074387   0.000000   0.000000   0.000000
   57  H  7  X    0.011656   0.000000   0.015103  -0.013300   0.013036
[...]
 ...... END OF PI ENERGY ANALYSIS ......

          ---------------------------------------
          MULLIKEN AND LOWDIN POPULATION ANALYSES
          ---------------------------------------

     MULLIKEN ATOMIC POPULATION IN EACH MOLECULAR ORBITAL

                      1          2          3          4          5

                  2.000000   2.000000   2.000000   2.000000   2.000000

    1            -0.000124   0.000024   0.000713   0.000134   0.001286
    2             0.000084   0.000231   0.001568  -0.000149   0.000287
    3             0.000072   0.000244   0.001566  -0.000146   0.000287
    4             0.000369   0.000126  -0.000214  -0.000010   0.000010
    5             0.000348   0.000147  -0.000213  -0.000010   0.000010
    6             0.000455   0.000335   0.000040   0.000052   0.000024
    7             0.000421   0.000369   0.000039   0.000053   0.000024
    8            -0.001037   0.000270   0.008264   0.017414   1.983700
    9             0.003866   0.003047   0.999114   0.989857   0.007522
   10             0.003586   0.003327   0.993149   0.995823   0.007522
   11             1.038290   0.953630  -0.002018  -0.001504  -0.000335
   12             0.953670   1.038250  -0.002008  -0.001514  -0.000335

                      6          7          8          9         10

                  2.000000   2.000000   2.000000   2.000000   2.000000

    1             0.053443  -0.008617   0.142476  -0.006404   0.285381
    2             0.051560   0.027676   0.027630   0.152135   0.197979
    3             0.051560   0.027676   0.027630   0.152135   0.197979
    4             0.108720   0.119593   0.022970   0.077210   0.140150
    5             0.108719   0.119593   0.022970   0.077210   0.140150
    6             0.064222   0.093552   0.061872   0.085109  -0.007781
    7             0.064222   0.093552   0.061872   0.085109  -0.007781
    8            -0.147842  -0.218158   0.263745  -0.127799   0.163937
    9             0.201990   0.185234   0.540560   0.452132   0.194459
   10             0.201989   0.185235   0.540560   0.452132   0.194459
   11             0.620709   0.687331   0.143857   0.300515   0.250534
   12             0.620708   0.687332   0.143857   0.300515   0.250534

                     11         12         13         14         15

                  2.000000   2.000000   2.000000   2.000000   2.000000

    1            -0.000685   0.025977   0.358279  -0.008053  -0.005365
    2             0.123157   0.079766   0.050140   0.153664   0.191478
    3             0.123157   0.079766   0.050139   0.153664   0.191477
    4             0.160578  -0.011331   0.179760   0.050986   0.091871
    5             0.160578  -0.011331   0.179760   0.050986   0.091871
    6             0.144710   0.207935   0.119227   0.042426   0.101456
    7             0.144710   0.207935   0.119227   0.042426   0.101456
    8             0.199508   0.174871   0.244125   0.280175   0.283162
    9             0.073103   0.183601   0.044241   0.352971   0.340118
   10             0.073103   0.183601   0.044241   0.352971   0.340118
   11             0.399042   0.439604   0.305431   0.263893   0.136180
   12             0.399042   0.439604   0.305431   0.263893   0.136180

                     16         17         18         19

                  2.000000   2.000000   2.000000   2.000000

    1            -0.003640   0.692934   0.000000   0.008891
    2            -0.003397   0.252296  -0.004326   0.001439
    3            -0.003397   0.252296  -0.004326   0.001439
    4             0.006256   0.037168   0.008152   0.004714
    5             0.006256   0.037168   0.008152   0.004714
    6             0.005157   0.004333   0.009673   0.007667
    7             0.005157   0.004333   0.009673   0.007667
    8             0.301245   0.380960   0.040357   0.887948
    9             0.321918   0.132217   0.170902   0.165668
   10             0.321918   0.132217   0.170902   0.165668
   11             0.521264   0.037039   0.795421   0.372092
   12             0.521264   0.037039   0.795421   0.372092

               ----- POPULATIONS IN EACH AO -----
                             MULLIKEN      LOWDIN
              1  H  1  S      0.76744     0.51552
              2  H  1  S      0.74159     0.15518
              3  H  1  X      0.00744     0.01679
              4  H  1  Y      0.00326     0.01083
              5  H  1  Z      0.02095     0.03998
              6  H  1  S      0.01615     0.01949
              7  H  1  X     -0.00218     0.06431
              8  H  1  Y     -0.03223     0.03571
              9  H  1  Z      0.01423     0.06676
             10  H  2  S      0.76612     0.52292
             11  H  2  S      0.50873     0.14443
             12  H  2  X      0.00332     0.00785
             13  H  2  Y      0.00288     0.00942
             14  H  2  Z      0.02291     0.04328
             15  H  2  S      0.02363     0.01828
             16  H  2  X     -0.00961     0.03967
             17  H  2  Y     -0.01907     0.03853
             18  H  2  Z      0.00430     0.06715
             19  H  3  S      0.76612     0.52292
             20  H  3  S      0.50873     0.14443
             21  H  3  X      0.00332     0.00785
             22  H  3  Y      0.00288     0.00942
             23  H  3  Z      0.02291     0.04328
             24  H  3  S      0.02363     0.01828
             25  H  3  X     -0.00961     0.03967
             26  H  3  Y     -0.01907     0.03853
             27  H  3  Z      0.00430     0.06715
             28  H  4  S      0.73998     0.47469
             29  H  4  S      0.23357     0.11377
             30  H  4  X      0.01334     0.03299
             31  H  4  Y      0.00538     0.02009
             32  H  4  Z      0.03683     0.06245
             33  H  4  S     -0.01098     0.01492
             34  H  4  X      0.00578     0.06877
             35  H  4  Y     -0.01890     0.04271
             36  H  4  Z     -0.00793     0.07512
             37  H  5  S      0.73998     0.47469
             38  H  5  S      0.23357     0.11377
             39  H  5  X      0.01334     0.03299
             40  H  5  Y      0.00538     0.02009
             41  H  5  Z      0.03683     0.06245
             42  H  5  S     -0.01098     0.01492
             43  H  5  X      0.00578     0.06877
             44  H  5  Y     -0.01890     0.04271
             45  H  5  Z     -0.00793     0.07512
             46  H  6  S      0.74017     0.47129
             47  H  6  S      0.18901     0.11471
             48  H  6  X      0.01411     0.03396
             49  H  6  Y      0.02667     0.04814
             50  H  6  Z      0.01557     0.03380
             51  H  6  S     -0.00652     0.01391
             52  H  6  X      0.00839     0.07270
             53  H  6  Y     -0.01886     0.05910
             54  H  6  Z     -0.02807     0.05433
             55  H  7  S      0.74017     0.47129
             56  H  7  S      0.18901     0.11471
             57  H  7  X      0.01411     0.03396
             58  H  7  Y      0.02667     0.04814
             59  H  7  Z      0.01557     0.03380
             60  H  7  S     -0.00652     0.01391
             61  H  7  X      0.00839     0.07270
             62  H  7  Y     -0.01886     0.05910
             63  H  7  Z     -0.02807     0.05433
             64  C  8  S      2.00833     1.80445
             65  C  8  S      0.63385     0.42685
             66  C  8  S      0.09778     0.17528
             67  C  8  X      0.67963     0.56205
             68  C  8  Y      0.71460     0.60618
             69  C  8  Z      0.71255     0.60195
             70  C  8  X      0.49783     0.31159
             71  C  8  Y     -0.23959     0.22061
             72  C  8  Z      0.05599     0.28557
             73  C  8 XX      0.02131     0.05417
             74  C  8 YY      0.01082     0.16135
             75  C  8 ZZ      0.00575     0.14596
             76  C  8 XY      0.00674     0.00955
             77  C  8 XZ      0.02569     0.00790
             78  C  8 YZ      0.00000     0.05628
             79  C  8  S     -0.43961     0.04377
             80  C  8  X      0.00789     0.02692
             81  C  8  Y      0.04427     0.03673
             82  C  8  Z      0.05075     0.03072
             83  C  8 XX     -0.09512     0.00701
             84  C  8 YY      0.01408     0.11418
             85  C  8 ZZ      0.03460     0.12333
             86  C  8 XY     -0.00290     0.06270
             87  C  8 XZ     -0.11040     0.02007
             88  C  8 YZ      0.00000     0.13357
             89  C  9  S      2.00774     1.79185
             90  C  9  S      0.68472     0.45127
             91  C  9  S      0.55199     0.17003
             92  C  9  X      0.38691     0.31154
             93  C  9  Y      0.76536     0.63897
             94  C  9  Z      0.77088     0.63924
             95  C  9  X      0.20583     0.21241
             96  C  9  Y     -0.11492     0.20432
             97  C  9  Z     -0.01871     0.26691
             98  C  9 XX      0.02923     0.05175
             99  C  9 YY      0.02085     0.17967
            100  C  9 ZZ      0.04542     0.15283
            101  C  9 XY      0.00591     0.07550
            102  C  9 XZ      0.03186     0.00849
            103  C  9 YZ      0.00000     0.06332
            104  C  9  S      0.02658     0.04213
            105  C  9  X      0.00491     0.02288
            106  C  9  Y      0.04593     0.03645
            107  C  9  Z      0.02641     0.02626
            108  C  9 XX     -0.08058     0.00605
            109  C  9 YY     -0.00111     0.15214
            110  C  9 ZZ      0.02240     0.11937
            111  C  9 XY     -0.01288     0.19917
            112  C  9 XZ     -0.04221     0.01886
            113  C  9 YZ      0.00000     0.14409
            114  C 10  S      2.00774     1.79185
            115  C 10  S      0.68472     0.45127
            116  C 10  S      0.55199     0.17003
            117  C 10  X      0.38691     0.31154
            118  C 10  Y      0.76536     0.63897
            119  C 10  Z      0.77088     0.63924
            120  C 10  X      0.20583     0.21241
            121  C 10  Y     -0.11492     0.20432
            122  C 10  Z     -0.01871     0.26691
            123  C 10 XX      0.02923     0.05175
            124  C 10 YY      0.02085     0.17967
            125  C 10 ZZ      0.04542     0.15283
            126  C 10 XY      0.00591     0.07550
            127  C 10 XZ      0.03186     0.00849
            128  C 10 YZ      0.00000     0.06332
            129  C 10  S      0.02658     0.04213
            130  C 10  X      0.00491     0.02288
            131  C 10  Y      0.04593     0.03645
            132  C 10  Z      0.02641     0.02626
            133  C 10 XX     -0.08058     0.00605
            134  C 10 YY     -0.00111     0.15214
            135  C 10 ZZ      0.02240     0.11937
            136  C 10 XY     -0.01288     0.19917
            137  C 10 XZ     -0.04221     0.01886
            138  C 10 YZ      0.00000     0.14409
            139  N 11  S      2.00568     1.84203
            140  N 11  S      0.71421     0.48441
            141  N 11  S      0.78530     0.24049
            142  N 11  X      0.90017     0.81575
            143  N 11  Y      0.77506     0.67161
            144  N 11  Z      0.77656     0.67096
            145  N 11  X      0.73051     0.45749
            146  N 11  Y      0.28385     0.36143
            147  N 11  Z      0.29719     0.38804
            148  N 11 XX      0.00900     0.08602
            149  N 11 YY      0.00539     0.15226
            150  N 11 ZZ      0.00334     0.14243
            151  N 11 XY      0.00061     0.00431
            152  N 11 XZ      0.01172     0.00085
            153  N 11 YZ      0.00000     0.02230
            154  N 11  S     -0.07277     0.04995
            155  N 11  X      0.03822     0.03645
            156  N 11  Y      0.01117     0.04512
            157  N 11  Z      0.00031     0.03896
            158  N 11 XX     -0.01485     0.01036
            159  N 11 YY      0.00079     0.10036
            160  N 11 ZZ      0.01386     0.07577
            161  N 11 XY      0.00208     0.03388
            162  N 11 XZ     -0.01640     0.00554
            163  N 11 YZ      0.00000     0.10209
            164  N 12  S      2.00568     1.84203
            165  N 12  S      0.71421     0.48441
            166  N 12  S      0.78530     0.24049
            167  N 12  X      0.90017     0.81575
            168  N 12  Y      0.77506     0.67161
            169  N 12  Z      0.77656     0.67096
            170  N 12  X      0.73051     0.45749
            171  N 12  Y      0.28385     0.36143
            172  N 12  Z      0.29719     0.38804
            173  N 12 XX      0.00900     0.08602
            174  N 12 YY      0.00539     0.15226
            175  N 12 ZZ      0.00334     0.14243
            176  N 12 XY      0.00061     0.00431
            177  N 12 XZ      0.01172     0.00085
            178  N 12 YZ      0.00000     0.02230
            179  N 12  S     -0.07277     0.04995
            180  N 12  X      0.03822     0.03645
            181  N 12  Y      0.01117     0.04512
            182  N 12  Z      0.00031     0.03896
            183  N 12 XX     -0.01485     0.01036
            184  N 12 YY      0.00079     0.10036
            185  N 12 ZZ      0.01386     0.07577
            186  N 12 XY      0.00208     0.03388
            187  N 12 XZ     -0.01640     0.00554
            188  N 12 YZ      0.00000     0.10209

          ----- MULLIKEN ATOMIC OVERLAP POPULATIONS -----
          (OFF-DIAGONAL ELEMENTS NEED TO BE MULTIPLIED BY 2)

             1           2           3           4           5

    1    1.6835669
    2    0.0512384   1.2336563
    3    0.0512384  -0.0282813   1.2336563
    4    0.0150456   0.0142685  -0.0000393   0.8043055
    5    0.0150456  -0.0000393   0.0142685  -0.0000894   0.8043055
    6   -0.0032228  -0.0178293  -0.0019008  -0.1726182   0.0000943
    7   -0.0032228  -0.0019008  -0.0178292   0.0000943  -0.1726182
    8   -0.0329885  -0.0336936  -0.0336937   0.0668699   0.0668699
    9   -0.1044645   0.1719710  -0.0564963  -0.1560698  -0.0039971
   10   -0.1044645  -0.0564963   0.1719711  -0.0039971  -0.1560698
   11   -0.0155612  -0.0389291   0.0092539   0.4278796   0.0014278
   12   -0.0155612   0.0092539  -0.0389291   0.0014278   0.4278796

             6           7           8           9          10

    6    0.7977576
    7    0.0000419   0.7977575
    8   -0.0001938  -0.0001938   5.5402780
    9   -0.1153966  -0.0123897  -0.2887298   5.5001016
   10   -0.0123897  -0.1153967  -0.2887297   0.1212935   5.5001016
   11    0.4658631   0.0002565  -0.1304744   0.3232383  -0.0165419
   12    0.0002565   0.4658632  -0.1304745  -0.0165419   0.3232383

            11          12

   11    6.2426621
   12   -0.0080991   6.2426621

          TOTAL MULLIKEN AND LOWDIN ATOMIC POPULATIONS
       ATOM         MULL.POP.    CHARGE          LOW.POP.     CHARGE
    1 H             1.536649   -0.536649         0.924560    0.075440
    2 H             1.303219   -0.303219         0.891533    0.108467
    3 H             1.303219   -0.303219         0.891533    0.108467
    4 H             0.997077    0.002923         0.905527    0.094473
    5 H             0.997077    0.002923         0.905527    0.094473
    6 H             0.940462    0.059538         0.901931    0.098069
    7 H             0.940462    0.059538         0.901931    0.098069
    8 C             4.734846    1.265154         6.028740   -0.028740
    9 C             5.362519    0.637481         5.985514    0.014486
   10 C             5.362519    0.637481         5.985514    0.014486
   11 N             7.260976   -0.260976         6.838845    0.161155
   12 N             7.260976   -0.260976         6.838845    0.161155

          MULLIKEN SPHERICAL HARMONIC POPULATIONS
       ATOM           S       P       D      F      G      H      I    TOTAL
    1 H             1.53    0.01    0.00   0.00   0.00   0.00   0.00    1.54
    2 H             1.30    0.00    0.00   0.00   0.00   0.00   0.00    1.30
    3 H             1.30    0.00    0.00   0.00   0.00   0.00   0.00    1.30
    4 H             0.96    0.03    0.00   0.00   0.00   0.00   0.00    1.00
    5 H             0.96    0.03    0.00   0.00   0.00   0.00   0.00    1.00
    6 H             0.92    0.02    0.00   0.00   0.00   0.00   0.00    0.94
    7 H             0.92    0.02    0.00   0.00   0.00   0.00   0.00    0.94
    8 C             2.30    2.52   -0.09   0.00   0.00   0.00   0.00    4.73
    9 C             3.27    2.07    0.02   0.00   0.00   0.00   0.00    5.36
   10 C             3.27    2.07    0.02   0.00   0.00   0.00   0.00    5.36
   11 N             3.43    3.81    0.02   0.00   0.00   0.00   0.00    7.26
   12 N             3.43    3.81    0.02   0.00   0.00   0.00   0.00    7.26

          -------------------------------
          BOND ORDER AND VALENCE ANALYSIS     BOND ORDER THRESHOLD=0.050
          -------------------------------

                   BOND                       BOND                       BOND
  ATOM PAIR DIST  ORDER      ATOM PAIR DIST  ORDER      ATOM PAIR DIST  ORDER
    1   8  1.084  0.372        1   9  2.147  0.145        1  10  2.147  0.145
    2   8  2.133 -0.081        2   9  1.086  0.914        3   8  2.133 -0.081
    3  10  1.086  0.914        4   6  1.717 -0.088        4   9  2.033 -0.137
    4  11  1.008  1.127        5   7  1.717 -0.088        5  10  2.033 -0.137
    5  12  1.008  1.127        6   9  2.024 -0.118        6  11  1.006  1.092
    7  10  2.024 -0.118        7  12  1.006  1.092        8   9  1.381  1.185
    8  10  1.381  1.185        9  10  2.376  0.188        9  11  1.312  1.118
   10  12  1.312  1.118

                       TOTAL       BONDED        FREE
      ATOM            VALENCE     VALENCE     VALENCE
    1 H                 0.705       0.705       0.000
    2 H                 0.857       0.857       0.000
    3 H                 0.857       0.857       0.000
    4 H                 0.959       0.959       0.000
    5 H                 0.959       0.959       0.000
    6 H                 0.884       0.884       0.000
    7 H                 0.884       0.884       0.000
    8 C                 2.586       2.586       0.000
    9 C                 3.333       3.333       0.000
   10 C                 3.333       3.333       0.000
   11 N                 3.322       3.322       0.000
   12 N                 3.322       3.322       0.000

          ---------------------
          ELECTROSTATIC MOMENTS
          ---------------------

 POINT   1           X           Y           Z (BOHR)    CHARGE
                 0.000000    0.000000   -0.000508        1.00 (A.U.)
         DX          DY          DZ         /D/  (DEBYE)
     0.000000    0.000000   -0.418182    0.418182
 ...... END OF PROPERTY EVALUATION ......
 STEP CPU TIME =     0.04 TOTAL CPU TIME =       14.5 (    0.2 MIN)
 TOTAL WALL CLOCK TIME=       16.0 SECONDS, CPU UTILIZATION IS  90.75%
                440000  WORDS OF DYNAMIC MEMORY USED
 EXECUTION OF GAMESS TERMINATED NORMALLY Tue Sep 19 10:37:00 2017
 DDI: 1128 bytes (0.0 MB / 0 MWords) used by master data server.

 ----------------------------------------
 CPU timing information for all processes
 ========================================
 0: 12.968810 + 1.564097 = 14.532907
 ----------------------------------------
 ddikick.x: exited gracefully.
----- accounting info -----
Tue Sep 19 10:37:03 CEST 2017
Files used on the master node lpqlx139 were:
-rw-r--r-- 1 scemama scemama    544729 Sep 19 10:37 /tmp/gamess/C3.dat
-rw-r--r-- 1 scemama scemama       796 Sep 19 10:36 /tmp/gamess/C3.F05
-rw-r--r-- 1 scemama scemama 880278240 Sep 19 10:36 /tmp/gamess/C3.F08
-rw-r--r-- 1 scemama scemama  13218880 Sep 19 10:37 /tmp/gamess/C3.F10
0.096u 0.000s 0:18.48 0.4%	0+0k 0+8io 0pf+0w
