----- GAMESS execution script -----
This job is running on host lpqlx139
under operating system Linux at Tue Sep 19 10:39:04 CEST 2017
Available scratch disk space (Kbyte units) at beginning of the job is
Filesystem                                             1K-blocks     Used Available Use% Mounted on
/dev/disk/by-uuid/e0d35396-14d3-4d0f-9cc9-2a3899cf3e0f  51175000 49535564   1639436  97% /

 Distributed Data Interface kickoff program.
 Initiating 4 compute processes on 1 nodes to run the following command:
 /usr/local/gamess/gamess.01.x C5 

          ******************************************************
          *         GAMESS VERSION = 22 FEB 2006 (R5)          *
          *             FROM IOWA STATE UNIVERSITY             *
          * M.W.SCHMIDT, K.K.BALDRIDGE, J.A.BOATZ, S.T.ELBERT, *
          *   M.S.GORDON, J.H.JENSEN, S.KOSEKI, N.MATSUNAGA,   *
          *          K.A.NGUYEN, S.J.SU, T.L.WINDUS,           *
          *       TOGETHER WITH M.DUPUIS, J.A.MONTGOMERY       *
          *         J.COMPUT.CHEM.  14, 1347-1363(1993)        *
          ***************** AMD 64 BIT VERSION *****************

     SINCE 1993, STUDENTS AND POSTDOCS WORKING AT IOWA STATE UNIVERSITY
     AND ALSO IN THEIR VARIOUS JOBS AFTER LEAVING ISU HAVE MADE IMPORTANT
     CONTRIBUTIONS TO THE CODE:
     IVANA ADAMOVIC, CHRISTINE AIKENS, YURI ALEXEEV, POOJA ARORA, ROB BELL,
     PRADIPTA BANDYOPADHYAY, BRETT BODE, GALINA CHABAN, WEI CHEN,
     CHEOL HO CHOI, PAUL DAY, TIM DUDLEY, DMITRI FEDOROV, GRAHAM FLETCHER,
     MARK FREITAG, KURT GLAESEMANN, GRANT MERRILL, TAKESHI NAGATA,
     HEATHER NETZLOFF, BOSILJKA NJEGIC, RYAN OLSON, MIKE PAK, JIM SHOEMAKER,
     LYUDMILA SLIPCHENKO, JIE SONG, TETSUYA TAKETSUGU, SIMON WEBB.

     ADDITIONAL CODE HAS BEEN PROVIDED BY COLLABORATORS IN OTHER GROUPS:
     IOWA STATE UNIVERSITY: JOE IVANIC, KLAUS RUEDENBERG
     UNIVERSITY OF TOKYO: KIMIHIKO HIRAO, HARUYUKI NAKANO, TAKAHITO
          NAKAJIMA, TAKAO TSUNEDA, MUNEAKI KAMIYA, SUSUMU YANAGISAWA,
          KIYOSHI YAGI
     UNIVERSITY OF SOUTHERN DENMARK: FRANK JENSEN
     UNIVERSITY OF IOWA: VISVALDAS KAIRYS, HUI LI
     NATIONAL INST. OF STANDARDS AND TECHNOLOGY: WALT STEVENS, DAVID GARMER
     UNIVERSITY OF PISA: BENEDETTA MENNUCCI, JACOPO TOMASI
     UNIVERSITY OF MEMPHIS: HENRY KURTZ, PRAKASHAN KORAMBATH
     UNIVERSITY OF ALBERTA: MARIUSZ KLOBUKOWSKI
     UNIVERSITY OF NEW ENGLAND: MARK SPACKMAN
     MIE UNIVERSITY: HIROAKI UMEDA
     MICHIGAN STATE UNIVERSITY:
          KAROL KOWALSKI, MARTA WLOCH, PIOTR PIECUCH
     UNIVERSITY OF SILESIA: MONIKA MUSIAL, STANISLAW KUCHARSKI
     FACULTES UNIVERSITAIRES NOTRE-DAME DE LA PAIX:
          OLIVIER QUINET, BENOIT CHAMPAGNE
     UNIVERSITY OF CALIFORNIA - SANTA BARBARA: BERNARD KIRTMAN
     INSTITUTE FOR MOLECULAR SCIENCE: KAZUYA ISHIMURA AND SHIGERU NAGASE
     UNIVERSITY OF NOTRE DAME: DAN CHIPMAN
     KYUSHU UNIVERSITY:
          FENG LONG GU, JACEK KORCHOWIEC, MARCIN MAKOWSKI, AND YURIKO AOKI
     PENNSYLVANIA STATE UNIVERSITY:
          TZVETELIN IORDANOV, CHET SWALINA, SHARON HAMMES-SCHIFFER


 PARALLEL VERSION RUNNING ON     4 PROCESSORS IN     1 NODES.

 EXECUTION OF GAMESS BEGUN Tue Sep 19 10:39:05 2017

            ECHO OF THE FIRST FEW INPUT CARDS -
 INPUT CARD> $CONTRL                                                                        
 INPUT CARD>   EXETYP=RUN COORD=UNIQUE  UNITS=ANGS                                          
 INPUT CARD>   RUNTYP=ENERGY SCFTYP=RHF CITYP=NONE                                          
 INPUT CARD>   MAXIT=100                                                                    
 INPUT CARD>   ISPHER=1                                                                     
 INPUT CARD>   MULT=1                                                                       
 INPUT CARD>   ICHARG=1                                                                     
 INPUT CARD>   MPLEVL=0                                                                     
 INPUT CARD> $END                                                                           
 INPUT CARD>                                                                                
 INPUT CARD> $GUESS                                                                         
 INPUT CARD>  GUESS=HUCKEL                                                                  
 INPUT CARD> $END                                                                           
 INPUT CARD>                                                                                
 INPUT CARD> $SCF                                                                           
 INPUT CARD>  DIRSCF=.T.                                                                    
 INPUT CARD> $END                                                                           
 INPUT CARD>                                                                                
 INPUT CARD> $BASIS                                                                         
 INPUT CARD>  GBASIS=ACCD                                                                   
 INPUT CARD> $END                                                                           
 INPUT CARD>                                                                                
 INPUT CARD> $DATA                                                                          
 INPUT CARD>C3                                                                              
 INPUT CARD>C1                                                                              
 INPUT CARD>H  1.0          0.000000    0.000000    1.346928                                
 INPUT CARD>H  1.0          0.000000    1.288014   -1.456977                                
 INPUT CARD>H  1.0          0.000000   -1.288014   -1.456977                                
 INPUT CARD>H  1.0          0.000000    2.327889    1.454856                                
 INPUT CARD>H  1.0          0.000000   -2.327889    1.454856                                
 INPUT CARD>H  1.0          0.000000    3.790846   -1.108170                                
 INPUT CARD>H  1.0          0.000000   -3.790846   -1.108170                                
 INPUT CARD>H  1.0          0.000000    4.419815    0.489308                                
 INPUT CARD>H  1.0          0.000000   -4.419815    0.489308                                
 INPUT CARD>C  6.0          0.000000    0.000000    0.258703                                
 INPUT CARD>C  6.0          0.000000    1.233147   -0.373850                                
 INPUT CARD>C  6.0          0.000000   -1.233147   -0.373850                                
 INPUT CARD>C  6.0          0.000000    2.393799    0.371447                                
 INPUT CARD>C  6.0          0.000000   -2.393799    0.371447                                
 INPUT CARD>N  7.0          0.000000    3.618036   -0.116310                                
 INPUT CARD>N  7.0          0.000000   -3.618036   -0.116310                                
 INPUT CARD> $END                                                                           
 INPUT CARD>                                                                                

 ..... DONE SETTING UP THE RUN .....
    1000000 WORDS OF MEMORY AVAILABLE

     BASIS OPTIONS
     -------------
     GBASIS=ACCD         IGAUSS=       0      POLAR=NONE    
     NDFUNC=       0     NFFUNC=       0     DIFFSP=       F
     NPFUNC=       0      DIFFS=       F


     RUN TITLE
     ---------
 C3                                                                              

 THE POINT GROUP OF THE MOLECULE IS C1      
 THE ORDER OF THE PRINCIPAL AXIS IS     0

 ATOM      ATOMIC                      COORDINATES (BOHR)
           CHARGE         X                   Y                   Z
 H           1.0     0.0000000000        0.0000000000        2.5453248452
 H           1.0     0.0000000000        2.4339935283       -2.7532873004
 H           1.0     0.0000000000       -2.4339935283       -2.7532873004
 H           1.0     0.0000000000        4.3990723398        2.7492791916
 H           1.0     0.0000000000       -4.3990723398        2.7492791916
 H           1.0     0.0000000000        7.1636602017       -2.0941376478
 H           1.0     0.0000000000       -7.1636602017       -2.0941376478
 H           1.0     0.0000000000        8.3522392664        0.9246580436
 H           1.0     0.0000000000       -8.3522392664        0.9246580436
 C           6.0     0.0000000000        0.0000000000        0.4888777822
 C           6.0     0.0000000000        2.3303099326       -0.7064740605
 C           6.0     0.0000000000       -2.3303099326       -0.7064740605
 C           6.0     0.0000000000        4.5236241797        0.7019330490
 C           6.0     0.0000000000       -4.5236241797        0.7019330490
 N           7.0     0.0000000000        6.8370966537       -0.2197940296
 N           7.0     0.0000000000       -6.8370966537       -0.2197940296

          INTERNUCLEAR DISTANCES (ANGS.)
          ------------------------------

                    H              H              H              H         

  1  H               0.0000000      3.0855896      3.0855896      2.3303896 *  
  2  H               3.0855896      0.0000000      2.5760280 *    3.0919430    
  3  H               3.0855896      2.5760280 *    0.0000000      4.6425775    
  4  H               2.3303896 *    3.0919430      4.6425775      0.0000000    
  5  H               2.3303896 *    4.6425775      3.0919430      4.6557780    
  6  H               4.5164167      2.5270208 *    5.0908236      2.9511600 *  
  7  H               4.5164167      5.0908236      2.5270208 *    6.6338541    
  8  H               4.5022524      3.6873029      6.0305337      2.3040046 *  
  9  H               4.5022524      6.0305337      3.6873029      6.8164354    
 10  C               1.0882250 *    2.1453526 *    2.1453526 *    2.6172217 *  
 11  C               2.1170093 *    1.0845158 *    2.7439783 *    2.1313436 *  
 12  C               2.1170093 *    2.7439783 *    1.0845158 *    4.0031416    
 13  C               2.5849249 *    2.1367954 *    4.1108249      1.0854120 *  
 14  C               2.5849249 *    4.1108249      2.1367954 *    4.8443898    
 15  N               3.9027234      2.6881947 *    5.0859330      2.0329884 *  
 16  N               3.9027234      5.0859330      2.6881947 *    6.1500070    

                    H              H              H              H         

  1  H               2.3303896 *    4.5164167      4.5164167      4.5022524    
  2  H               4.6425775      2.5270208 *    5.0908236      3.6873029    
  3  H               3.0919430      5.0908236      2.5270208 *    6.0305337    
  4  H               4.6557780      2.9511600 *    6.6338541      2.3040046 *  
  5  H               0.0000000      6.6338541      2.9511600 *    6.8164354    
  6  H               6.6338541      0.0000000      7.5816920      1.7168395 *  
  7  H               2.9511600 *    7.5816920      0.0000000      8.3646213    
  8  H               6.8164354      1.7168395 *    8.3646213      0.0000000    
  9  H               2.3040046 *    8.3646213      1.7168395 *    8.8396300    
 10  C               2.6172217 *    4.0297463      4.0297463      4.4258268    
 11  C               4.0031416      2.6610242 *    5.0773745      3.3014989    
 12  C               2.1313436 *    5.0773745      2.6610242 *    5.7184807    
 13  C               4.8443898      2.0349464 *    6.3591745      2.0294413 *  
 14  C               1.0854120 *    6.3591745      2.0349464 *    6.8146333    
 15  N               6.1500070      1.0068016 *    7.4749795      1.0047998 *  
 16  N               2.0329884 *    7.4749795      1.0068016 *    8.0606341    

                    H              C              C              C         

  1  H               4.5022524      1.0882250 *    2.1170093 *    2.1170093 *  
  2  H               6.0305337      2.1453526 *    1.0845158 *    2.7439783 *  
  3  H               3.6873029      2.1453526 *    2.7439783 *    1.0845158 *  
  4  H               6.8164354      2.6172217 *    2.1313436 *    4.0031416    
  5  H               2.3040046 *    2.6172217 *    4.0031416      2.1313436 *  
  6  H               8.3646213      4.0297463      2.6610242 *    5.0773745    
  7  H               1.7168395 *    4.0297463      5.0773745      2.6610242 *  
  8  H               8.8396300      4.4258268      3.3014989      5.7184807    
  9  H               0.0000000      4.4258268      5.7184807      3.3014989    
 10  C               4.4258268      0.0000000      1.3859202 *    1.3859202 *  
 11  C               5.7184807      1.3859202 *    0.0000000      2.4662940 *  
 12  C               3.3014989      1.3859202 *    2.4662940 *    0.0000000    
 13  C               6.8146333      2.3964526 *    1.3793407 *    3.7027294    
 14  C               2.0294413 *    2.3964526 *    3.7027294      1.3793407 *  
 15  N               8.0606341      3.6374193      2.3987543 *    4.8580143    
 16  N               1.0047998 *    3.6374193      4.8580143      2.3987543 *  

                    C              C              N              N         

  1  H               2.5849249 *    2.5849249 *    3.9027234      3.9027234    
  2  H               2.1367954 *    4.1108249      2.6881947 *    5.0859330    
  3  H               4.1108249      2.1367954 *    5.0859330      2.6881947 *  
  4  H               1.0854120 *    4.8443898      2.0329884 *    6.1500070    
  5  H               4.8443898      1.0854120 *    6.1500070      2.0329884 *  
  6  H               2.0349464 *    6.3591745      1.0068016 *    7.4749795    
  7  H               6.3591745      2.0349464 *    7.4749795      1.0068016 *  
  8  H               2.0294413 *    6.8146333      1.0047998 *    8.0606341    
  9  H               6.8146333      2.0294413 *    8.0606341      1.0047998 *  
 10  C               2.3964526 *    2.3964526 *    3.6374193      3.6374193    
 11  C               1.3793407 *    3.7027294      2.3987543 *    4.8580143    
 12  C               3.7027294      1.3793407 *    4.8580143      2.3987543 *  
 13  C               0.0000000      4.7875980      1.3178251 *    6.0315891    
 14  C               4.7875980      0.0000000      6.0315891      1.3178251 *  
 15  N               1.3178251 *    6.0315891      0.0000000      7.2360720    
 16  N               6.0315891      1.3178251 *    7.2360720      0.0000000    

  * ... LESS THAN  3.000


     ATOMIC BASIS SET
     ----------------
 THE CONTRACTED PRIMITIVE FUNCTIONS HAVE BEEN UNNORMALIZED
 THE CONTRACTED BASIS FUNCTIONS ARE NOW NORMALIZED TO UNITY

  SHELL TYPE  PRIMITIVE        EXPONENT          CONTRACTION COEFFICIENT(S)

 H         

      1   S       1            13.0100000    0.033498726390
      1   S       2             1.9620000    0.234800801174
      1   S       3             0.4446000    0.813682957883

      2   S       4             0.1220000    1.000000000000

      3   P       5             0.7270000    1.000000000000

      4   S       6             0.0297400    1.000000000000

      5   P       7             0.1410000    1.000000000000

 H         

      6   S       8            13.0100000    0.033498726390
      6   S       9             1.9620000    0.234800801174
      6   S      10             0.4446000    0.813682957883

      7   S      11             0.1220000    1.000000000000

      8   P      12             0.7270000    1.000000000000

      9   S      13             0.0297400    1.000000000000

     10   P      14             0.1410000    1.000000000000

 H         

     11   S      15            13.0100000    0.033498726390
     11   S      16             1.9620000    0.234800801174
     11   S      17             0.4446000    0.813682957883

     12   S      18             0.1220000    1.000000000000

     13   P      19             0.7270000    1.000000000000

     14   S      20             0.0297400    1.000000000000

     15   P      21             0.1410000    1.000000000000

 H         

     16   S      22            13.0100000    0.033498726390
     16   S      23             1.9620000    0.234800801174
     16   S      24             0.4446000    0.813682957883

     17   S      25             0.1220000    1.000000000000

     18   P      26             0.7270000    1.000000000000

     19   S      27             0.0297400    1.000000000000

     20   P      28             0.1410000    1.000000000000

 H         

     21   S      29            13.0100000    0.033498726390
     21   S      30             1.9620000    0.234800801174
     21   S      31             0.4446000    0.813682957883

     22   S      32             0.1220000    1.000000000000

     23   P      33             0.7270000    1.000000000000

     24   S      34             0.0297400    1.000000000000

     25   P      35             0.1410000    1.000000000000

 H         

     26   S      36            13.0100000    0.033498726390
     26   S      37             1.9620000    0.234800801174
     26   S      38             0.4446000    0.813682957883

     27   S      39             0.1220000    1.000000000000

     28   P      40             0.7270000    1.000000000000

     29   S      41             0.0297400    1.000000000000

     30   P      42             0.1410000    1.000000000000

 H         

     31   S      43            13.0100000    0.033498726390
     31   S      44             1.9620000    0.234800801174
     31   S      45             0.4446000    0.813682957883

     32   S      46             0.1220000    1.000000000000

     33   P      47             0.7270000    1.000000000000

     34   S      48             0.0297400    1.000000000000

     35   P      49             0.1410000    1.000000000000

 H         

     36   S      50            13.0100000    0.033498726390
     36   S      51             1.9620000    0.234800801174
     36   S      52             0.4446000    0.813682957883

     37   S      53             0.1220000    1.000000000000

     38   P      54             0.7270000    1.000000000000

     39   S      55             0.0297400    1.000000000000

     40   P      56             0.1410000    1.000000000000

 H         

     41   S      57            13.0100000    0.033498726390
     41   S      58             1.9620000    0.234800801174
     41   S      59             0.4446000    0.813682957883

     42   S      60             0.1220000    1.000000000000

     43   P      61             0.7270000    1.000000000000

     44   S      62             0.0297400    1.000000000000

     45   P      63             0.1410000    1.000000000000

 C         

     46   S      64          6665.0000000    0.000691583963
     46   S      65          1000.0000000    0.005325796153
     46   S      66           228.0000000    0.027060721042
     46   S      67            64.7100000    0.101656846141
     46   S      68            21.0600000    0.274574823617
     46   S      69             7.4950000    0.448294318924
     46   S      70             2.7970000    0.284902610715
     46   S      71             0.5215000    0.015194859206

     47   S      72          6665.0000000   -0.000293269653
     47   S      73          1000.0000000   -0.002318035474
     47   S      74           228.0000000   -0.011499786039
     47   S      75            64.7100000   -0.046826727010
     47   S      76            21.0600000   -0.128466168750
     47   S      77             7.4950000   -0.301266272463
     47   S      78             2.7970000   -0.255630702330
     47   S      79             0.5215000    1.093793361012

     48   S      80             0.1596000    1.000000000000

     49   P      81             9.4390000    0.056979251590
     49   P      82             2.0020000    0.313207211501
     49   P      83             0.5456000    0.760376741738

     50   P      84             0.1517000    1.000000000000

     51   D      85             0.5500000    1.000000000000

     52   S      86             0.0469000    1.000000000000

     53   P      87             0.0404100    1.000000000000

     54   D      88             0.1510000    1.000000000000

 C         

     55   S      89          6665.0000000    0.000691583963
     55   S      90          1000.0000000    0.005325796153
     55   S      91           228.0000000    0.027060721042
     55   S      92            64.7100000    0.101656846141
     55   S      93            21.0600000    0.274574823617
     55   S      94             7.4950000    0.448294318924
     55   S      95             2.7970000    0.284902610715
     55   S      96             0.5215000    0.015194859206

     56   S      97          6665.0000000   -0.000293269653
     56   S      98          1000.0000000   -0.002318035474
     56   S      99           228.0000000   -0.011499786039
     56   S     100            64.7100000   -0.046826727010
     56   S     101            21.0600000   -0.128466168750
     56   S     102             7.4950000   -0.301266272463
     56   S     103             2.7970000   -0.255630702330
     56   S     104             0.5215000    1.093793361012

     57   S     105             0.1596000    1.000000000000

     58   P     106             9.4390000    0.056979251590
     58   P     107             2.0020000    0.313207211501
     58   P     108             0.5456000    0.760376741738

     59   P     109             0.1517000    1.000000000000

     60   D     110             0.5500000    1.000000000000

     61   S     111             0.0469000    1.000000000000

     62   P     112             0.0404100    1.000000000000

     63   D     113             0.1510000    1.000000000000

 C         

     64   S     114          6665.0000000    0.000691583963
     64   S     115          1000.0000000    0.005325796153
     64   S     116           228.0000000    0.027060721042
     64   S     117            64.7100000    0.101656846141
     64   S     118            21.0600000    0.274574823617
     64   S     119             7.4950000    0.448294318924
     64   S     120             2.7970000    0.284902610715
     64   S     121             0.5215000    0.015194859206

     65   S     122          6665.0000000   -0.000293269653
     65   S     123          1000.0000000   -0.002318035474
     65   S     124           228.0000000   -0.011499786039
     65   S     125            64.7100000   -0.046826727010
     65   S     126            21.0600000   -0.128466168750
     65   S     127             7.4950000   -0.301266272463
     65   S     128             2.7970000   -0.255630702330
     65   S     129             0.5215000    1.093793361012

     66   S     130             0.1596000    1.000000000000

     67   P     131             9.4390000    0.056979251590
     67   P     132             2.0020000    0.313207211501
     67   P     133             0.5456000    0.760376741738

     68   P     134             0.1517000    1.000000000000

     69   D     135             0.5500000    1.000000000000

     70   S     136             0.0469000    1.000000000000

     71   P     137             0.0404100    1.000000000000

     72   D     138             0.1510000    1.000000000000

 C         

     73   S     139          6665.0000000    0.000691583963
     73   S     140          1000.0000000    0.005325796153
     73   S     141           228.0000000    0.027060721042
     73   S     142            64.7100000    0.101656846141
     73   S     143            21.0600000    0.274574823617
     73   S     144             7.4950000    0.448294318924
     73   S     145             2.7970000    0.284902610715
     73   S     146             0.5215000    0.015194859206

     74   S     147          6665.0000000   -0.000293269653
     74   S     148          1000.0000000   -0.002318035474
     74   S     149           228.0000000   -0.011499786039
     74   S     150            64.7100000   -0.046826727010
     74   S     151            21.0600000   -0.128466168750
     74   S     152             7.4950000   -0.301266272463
     74   S     153             2.7970000   -0.255630702330
     74   S     154             0.5215000    1.093793361012

     75   S     155             0.1596000    1.000000000000

     76   P     156             9.4390000    0.056979251590
     76   P     157             2.0020000    0.313207211501
     76   P     158             0.5456000    0.760376741738

     77   P     159             0.1517000    1.000000000000

     78   D     160             0.5500000    1.000000000000

     79   S     161             0.0469000    1.000000000000

     80   P     162             0.0404100    1.000000000000

     81   D     163             0.1510000    1.000000000000

 C         

     82   S     164          6665.0000000    0.000691583963
     82   S     165          1000.0000000    0.005325796153
     82   S     166           228.0000000    0.027060721042
     82   S     167            64.7100000    0.101656846141
     82   S     168            21.0600000    0.274574823617
     82   S     169             7.4950000    0.448294318924
     82   S     170             2.7970000    0.284902610715
     82   S     171             0.5215000    0.015194859206

     83   S     172          6665.0000000   -0.000293269653
     83   S     173          1000.0000000   -0.002318035474
     83   S     174           228.0000000   -0.011499786039
     83   S     175            64.7100000   -0.046826727010
     83   S     176            21.0600000   -0.128466168750
     83   S     177             7.4950000   -0.301266272463
     83   S     178             2.7970000   -0.255630702330
     83   S     179             0.5215000    1.093793361012

     84   S     180             0.1596000    1.000000000000

     85   P     181             9.4390000    0.056979251590
     85   P     182             2.0020000    0.313207211501
     85   P     183             0.5456000    0.760376741738

     86   P     184             0.1517000    1.000000000000

     87   D     185             0.5500000    1.000000000000

     88   S     186             0.0469000    1.000000000000

     89   P     187             0.0404100    1.000000000000

     90   D     188             0.1510000    1.000000000000

 N         

     91   S     189          9046.0000000    0.000699617413
     91   S     190          1357.0000000    0.005386054630
     91   S     191           309.3000000    0.027391021189
     91   S     192            87.7300000    0.103150591982
     91   S     193            28.5600000    0.278570663317
     91   S     194            10.2100000    0.448294849454
     91   S     195             3.8380000    0.278085928395
     91   S     196             0.7466000    0.015431561233

     92   S     197          9046.0000000   -0.000304990096
     92   S     198          1357.0000000   -0.002408026379
     92   S     199           309.3000000   -0.011944448725
     92   S     200            87.7300000   -0.048925992909
     92   S     201            28.5600000   -0.134472724725
     92   S     202            10.2100000   -0.315112577700
     92   S     203             3.8380000   -0.242857832550
     92   S     204             0.7466000    1.094382206854

     93   S     205             0.2248000    1.000000000000

     94   P     206            13.5500000    0.058905676772
     94   P     207             2.9170000    0.320461106714
     94   P     208             0.7973000    0.753042061792

     95   P     209             0.2185000    1.000000000000

     96   D     210             0.8170000    1.000000000000

     97   S     211             0.0612400    1.000000000000

     98   P     212             0.0561100    1.000000000000

     99   D     213             0.2300000    1.000000000000

 N         

    100   S     214          9046.0000000    0.000699617413
    100   S     215          1357.0000000    0.005386054630
    100   S     216           309.3000000    0.027391021189
    100   S     217            87.7300000    0.103150591982
    100   S     218            28.5600000    0.278570663317
    100   S     219            10.2100000    0.448294849454
    100   S     220             3.8380000    0.278085928395
    100   S     221             0.7466000    0.015431561233

    101   S     222          9046.0000000   -0.000304990096
    101   S     223          1357.0000000   -0.002408026379
    101   S     224           309.3000000   -0.011944448725
    101   S     225            87.7300000   -0.048925992909
    101   S     226            28.5600000   -0.134472724725
    101   S     227            10.2100000   -0.315112577700
    101   S     228             3.8380000   -0.242857832550
    101   S     229             0.7466000    1.094382206854

    102   S     230             0.2248000    1.000000000000

    103   P     231            13.5500000    0.058905676772
    103   P     232             2.9170000    0.320461106714
    103   P     233             0.7973000    0.753042061792

    104   P     234             0.2185000    1.000000000000

    105   D     235             0.8170000    1.000000000000

    106   S     236             0.0612400    1.000000000000

    107   P     237             0.0561100    1.000000000000

    108   D     238             0.2300000    1.000000000000

 TOTAL NUMBER OF BASIS SET SHELLS             =  108
 NUMBER OF CARTESIAN GAUSSIAN BASIS FUNCTIONS =  256
 NOTE: THIS RUN WILL RESTRICT THE MO VARIATION SPACE TO SPHERICAL HARMONICS.
 THE NUMBER OF ORBITALS KEPT IN THE VARIATIONAL SPACE WILL BE PRINTED LATER.
 NUMBER OF ELECTRONS                          =   52
 CHARGE OF MOLECULE                           =    1
 SPIN MULTIPLICITY                            =    1
 NUMBER OF OCCUPIED ORBITALS (ALPHA)          =   26
 NUMBER OF OCCUPIED ORBITALS (BETA )          =   26
 TOTAL NUMBER OF ATOMS                        =   16
 THE NUCLEAR REPULSION ENERGY IS      266.4771007768

     $CONTRL OPTIONS
     ---------------
 SCFTYP=RHF          RUNTYP=ENERGY       EXETYP=RUN     
 MPLEVL=       0     CITYP =NONE         CCTYP =NONE         VBTYP =NONE    
 MULT  =       1     ICHARG=       1     NZVAR =       0     COORD =UNIQUE  
 PP    =NONE         RELWFN=NONE         LOCAL =NONE         NUMGRD=       F
 ISPHER=       1     NOSYM =       0     MAXIT =     100     UNITS =ANGS    
 PLTORB=       F     MOLPLT=       F     AIMPAC=       F     FRIEND=        
 NPRINT=       7     IREST =       0     GEOM  =INPUT   
 NORMF =       0     NORMP =       0     ITOL  =      20     ICUT  =       9
 INTTYP=BEST         GRDTYP=BEST         QMTTOL= 1.0E-06

     $SYSTEM OPTIONS
     ---------------
  REPLICATED MEMORY=     1000000 WORDS (ON EVERY NODE).
 DISTRIBUTED MEMDDI=           0 MILLION WORDS IN AGGREGATE,
 MEMDDI DISTRIBUTED OVER   4 PROCESSORS IS           0 WORDS/PROCESSOR.
 TOTAL MEMORY REQUESTED ON EACH PROCESSOR=     1000000 WORDS.
 TIMLIM=      525600.00 MINUTES, OR   365.00 DAYS.
 PARALL= T  BALTYP=  NXTVAL  KDIAG=    0  COREFL= F

          ----------------
          PROPERTIES INPUT
          ----------------

     MOMENTS            FIELD           POTENTIAL          DENSITY
 IEMOM =       1   IEFLD =       0   IEPOT =       0   IEDEN =       0
 WHERE =COMASS     WHERE =NUCLEI     WHERE =NUCLEI     WHERE =NUCLEI  
 OUTPUT=BOTH       OUTPUT=BOTH       OUTPUT=BOTH       OUTPUT=BOTH    
 IEMINT=       0   IEFINT=       0                     IEDINT=       0
                                                       MORB  =       0
          EXTRAPOLATION IN EFFECT
          SOSCF IN EFFECT
 ORBITAL PRINTING OPTION: NPREO=   1 256   2   1

     -------------------------------
     INTEGRAL TRANSFORMATION OPTIONS
     -------------------------------
     NWORD  =       0     CUTOFF = 1.0E-09
     MPTRAN =       0     DIRTRF =       T
     AOINTS =DUP     

          ----------------------
          INTEGRAL INPUT OPTIONS
          ----------------------
 NOPK  =       1 NORDER=       0 SCHWRZ=       T

     ------------------------------------------
     THE POINT GROUP IS C1 , NAXIS= 0, ORDER= 1
     ------------------------------------------

 -- VARIATIONAL SPACE WILL BE RESTRICTED TO PURE SPHERICAL HARMONICS ONLY --
 AFTER EXCLUDING CONTAMINANT COMBINATIONS FROM THE CARTESIAN GAUSSIAN BASIS
 SET, THE NUMBER OF SPHERICAL HARMONICS KEPT IN THE VARIATION SPACE IS  242

     DIMENSIONS OF THE SYMMETRY SUBSPACES ARE
 A   =  242

 ..... DONE SETTING UP THE RUN .....
 ON NODE 0, STEP CPU TIME =     0.00 TOTAL CPU TIME =        0.0 (    0.0 MIN)
 TOTAL WALL CLOCK TIME=        0.0 SECONDS, CPU UTILIZATION IS 100.00%

          ********************
          1 ELECTRON INTEGRALS
          ********************
 ...... END OF ONE-ELECTRON INTEGRALS ......
 ON NODE 0, STEP CPU TIME =     0.01 TOTAL CPU TIME =        0.0 (    0.0 MIN)
 TOTAL WALL CLOCK TIME=        0.0 SECONDS, CPU UTILIZATION IS 100.00%

          -------------
          GUESS OPTIONS
          -------------
          GUESS =HUCKEL            NORB  =       0          NORDER=       0
          MIX   =       F          PRTMO =       F          PUNMO =       F
          TOLZ  = 1.0E-08          TOLE  = 1.0E-05
          SYMDEN=       F          PURIFY=       F

 INITIAL GUESS ORBITALS GENERATED BY HUCKEL   ROUTINE.
 HUCKEL GUESS REQUIRES    489792 WORDS.

 STATISTICS FOR GENERATION OF SYMMETRY ORBITAL -Q- MATRIX
 NUMBER OF CARTESIAN ATOMIC ORBITALS=        256
 NUMBER OF SPHERICAL CONTAMINANTS DROPPED=    14
 NUMBER OF LINEARLY DEPENDENT MOS DROPPED=     0
 TOTAL NUMBER OF MOS IN VARIATION SPACE=     242

                    * * * * * WARNING * * * * *
 POSSIBLE LINEAR DEPENDENCE PROBLEMS DETECTED, INPUT QMTTOL= 1.0E-06,
 WITH     3 OVERLAP EIGENVALUES LYING BETWEEN 1.0E-05 AND QMTTOL.
 IF YOU EXPERIENCE SCF CONVERGENCE DIFFICULTIES WITH THE DENSITY ALMOST BUT
 NOT QUITE CONVERGED, YOU MAY NEED TO LOOSEN -QMTTOL- BY A FACTOR 5 TO 10.

 SYMMETRIES FOR INITIAL GUESS ORBITALS FOLLOW.   BOTH SET(S).
    26 ORBITALS ARE OCCUPIED (    7 CORE ORBITALS).
     8=A        9=A       10=A       11=A       12=A       13=A       14=A   
    15=A       16=A       17=A       18=A       19=A       20=A       21=A   
    22=A       23=A       24=A       25=A       26=A       27=A       28=A   
    29=A       30=A       31=A       32=A       33=A       34=A       35=A   
    36=A   
 ...... END OF INITIAL ORBITAL SELECTION ......
 ON NODE 0, STEP CPU TIME =     0.12 TOTAL CPU TIME =        0.1 (    0.0 MIN)
 TOTAL WALL CLOCK TIME=        0.0 SECONDS, CPU UTILIZATION IS 100.00%

                    ----------------------
                    AO INTEGRAL TECHNOLOGY
                    ----------------------
     S,P,L SHELL ROTATED AXIS INTEGRALS, REPROGRAMMED BY
        KAZUYA ISHIMURA (IMS) AND JOSE SIERRA (SYNSTAR).
     S,P,D,L SHELL ROTATED AXIS INTEGRALS PROGRAMMED BY
        KAZUYA ISHIMURA (INSTITUTE FOR MOLECULAR SCIENCE).
     S,P,D,F,G SHELL TO TOTAL QUARTET ANGULAR MOMENTUM SUM 5,
        ERIC PROGRAM BY GRAHAM FLETCHER (ELORET AND NASA ADVANCED
        SUPERCOMPUTING DIVISION, AMES RESEARCH CENTER).
     S,P,D,F,G,L SHELL GENERAL RYS QUADRATURE PROGRAMMED BY
        MICHEL DUPUIS (PACIFIC NORTHWEST NATIONAL LABORATORY).

          --------------------
          2 ELECTRON INTEGRALS
          --------------------

 DIRECT SCF METHOD SKIPS INTEGRAL STORAGE ON DISK.
 DIRECT TRANSFORMATION SKIPS AO INTEGRAL STORAGE ON DISK.
  ...... END OF TWO-ELECTRON INTEGRALS .....
 ON NODE 0, STEP CPU TIME =     0.00 TOTAL CPU TIME =        0.1 (    0.0 MIN)
 TOTAL WALL CLOCK TIME=        0.0 SECONDS, CPU UTILIZATION IS 100.00%

          --------------------------
                 RHF SCF CALCULATION
          --------------------------

     NUCLEAR ENERGY =       266.4771007768
     MAXIT =  100     NPUNCH=    2
     EXTRAP=T  DAMP=F  SHIFT=F  RSTRCT=F  DIIS=F  DEM=F  SOSCF=T
     DENSITY MATRIX CONV=  2.00E-05
     SOSCF WILL OPTIMIZE    5616 ORBITAL ROTATIONS, SOGTOL=   0.250
     MEMORY REQUIRED FOR RHF STEP=    541968 WORDS.

 DIRECT SCF CALCULATION, SCHWRZ=T   FDIFF=T,  DIRTHR=  0.00E+00 NITDIR=10
 SCHWARZ INEQUALITY OVERHEAD:     31899 INTEGRALS, T=        0.01

                                                                                   NONZERO     BLOCKS
 ITER EX DEM     TOTAL ENERGY        E CHANGE  DENSITY CHANGE     ORB. GRAD      INTEGRALS    SKIPPED
   1  0  0     -302.3606636587  -302.3606636587   2.287760686   0.000000000      222265326    2924718
          ---------------START SECOND ORDER SCF---------------
   2  1  0     -303.2176512909    -0.8569876322   0.434699051   0.048962411      222335454    2979811
   3  2  0     -303.2800835989    -0.0624323080   0.231926565   0.030595627      220665005    3358912
   4  3  0     -303.3048716094    -0.0247880105   0.086447784   0.003818235      218998525    3592851
   5  4  0     -303.3060594408    -0.0011878313   0.011431575   0.002289764      216894485    3837267
   6  5  0     -303.3062252438    -0.0001658030   0.007393533   0.000507421      213071620    4204576
   7  6  0     -303.3062370610    -0.0000118172   0.002215528   0.000174433      209296275    4492273
   8  7  0     -303.3062388117    -0.0000017508   0.000314409   0.000060816      204948797    4823423
   9  8  0     -303.3062389324    -0.0000001206   0.000255437   0.000014359      199575555    5208985
  10  9  0     -303.3062389436    -0.0000000113   0.000034177   0.000004743      194400041    5582123
  11 10  0     -303.3062389435     0.0000000001   0.000016627   0.000001419      183512874    6326998
  12 11  0     -303.3062389402     0.0000000033   0.000084314   0.000000582      178640737    6646761
  13 12  0     -303.3062389410    -0.0000000008   0.000016510   0.000000152      170606752    7032869
  14 13  0     -303.3062389428    -0.0000000017   0.000015488   0.000000064      170291144    7128188

          -----------------
          DENSITY CONVERGED
          -----------------
     TIME TO FORM FOCK OPERATORS=      56.4 SECONDS (       4.0 SEC/ITER)
     FOCK TIME ON FIRST ITERATION=       4.6, LAST ITERATION=       3.2
     TIME TO SOLVE SCF EQUATIONS=       0.1 SECONDS (       0.0 SEC/ITER)

 FINAL RHF ENERGY IS     -303.3062389428 AFTER  14 ITERATIONS

          ------------
          EIGENVECTORS
          ------------

                      1          2          3          4          5
                  -15.7664   -15.7664   -11.4850   -11.4850   -11.4432
                     A          A          A          A          A   
    1  H  1  S    0.000000  -0.000013   0.000000  -0.000028   0.000298
    2  H  1  S   -0.000035  -0.002497   0.000005   0.001656  -0.002618
    3  H  1  X    0.000000   0.000000   0.000000   0.000000   0.000000
    4  H  1  Y    0.000080  -0.000001  -0.000070   0.000000   0.000000
    5  H  1  Z    0.000001   0.000036   0.000000  -0.000054   0.000122
    6  H  1  S    0.000009   0.000663   0.000011   0.003840  -0.006829
    7  H  1  X    0.000000   0.000000   0.000000   0.000000   0.000000
    8  H  1  Y   -0.000522   0.000007   0.002763  -0.000008   0.000000
    9  H  1  Z    0.000006   0.000405  -0.000002  -0.000541   0.000173
   10  H  2  S   -0.000063  -0.000067   0.000068   0.000111  -0.000021
   11  H  2  S   -0.003605  -0.000555   0.003263   0.002320   0.000128
   12  H  2  X    0.000000   0.000000   0.000000   0.000000   0.000000
   13  H  2  Y   -0.000011   0.000005   0.000041   0.000022   0.000013
   14  H  2  Z    0.000015  -0.000012   0.000077   0.000120   0.000104
   15  H  2  S   -0.000703  -0.000478  -0.000914   0.001276   0.001904
   16  H  2  X    0.000000   0.000000   0.000000   0.000000   0.000000
   17  H  2  Y    0.000549   0.000198   0.001927   0.000666  -0.000356
   18  H  2  Z   -0.000911  -0.000061   0.001079   0.000919   0.000436
   19  H  3  S    0.000061  -0.000069  -0.000067   0.000112  -0.000021
   20  H  3  S    0.003588  -0.000655  -0.003249   0.002340   0.000128
   21  H  3  X    0.000000   0.000000   0.000000   0.000000   0.000000
   22  H  3  Y   -0.000011  -0.000005   0.000041  -0.000022  -0.000013
   23  H  3  Z   -0.000016  -0.000012  -0.000076   0.000120   0.000104
   24  H  3  S    0.000689  -0.000498   0.000922   0.001271   0.001904
   25  H  3  X    0.000000   0.000000   0.000000   0.000000   0.000000
   26  H  3  Y    0.000543  -0.000213   0.001923  -0.000677   0.000356
   27  H  3  Z    0.000909  -0.000086  -0.001074   0.000926   0.000436
   28  H  4  S   -0.000200  -0.000176   0.000295   0.000285  -0.000050
   29  H  4  S    0.003844   0.001725   0.001605   0.004639   0.005783
   30  H  4  X    0.000000   0.000000   0.000000   0.000000   0.000000
   31  H  4  Y   -0.000007  -0.000034  -0.000013  -0.000008   0.000117
   32  H  4  Z    0.000109   0.000088   0.000046   0.000100   0.000033
   33  H  4  S    0.000239  -0.000272  -0.002263  -0.001462   0.002592
   34  H  4  X    0.000000   0.000000   0.000000   0.000000   0.000000
   35  H  4  Y    0.000008   0.000419   0.001921   0.001041   0.000251
   36  H  4  Z   -0.001245  -0.000642  -0.000644  -0.001560  -0.001664
   37  H  5  S    0.000195  -0.000182  -0.000294   0.000286  -0.000050
   38  H  5  S   -0.003794   0.001832  -0.001577   0.004649   0.005783
   39  H  5  X    0.000000   0.000000   0.000000   0.000000   0.000000
   40  H  5  Y   -0.000006   0.000034  -0.000013   0.000008  -0.000117
   41  H  5  Z   -0.000106   0.000091  -0.000045   0.000100   0.000033
   42  H  5  S   -0.000246  -0.000265   0.002254  -0.001475   0.002592
   43  H  5  X    0.000000   0.000000   0.000000   0.000000   0.000000
   44  H  5  Y   -0.000004  -0.000419   0.001915  -0.001052  -0.000251
   45  H  5  Z    0.001226  -0.000677   0.000635  -0.001564  -0.001664
   46  H  6  S    0.000152   0.000152  -0.000139  -0.000137  -0.000010
   47  H  6  S    0.001831   0.002407  -0.000848  -0.001217  -0.001552
   48  H  6  X    0.000000   0.000000   0.000000   0.000000   0.000000
   49  H  6  Y    0.000003   0.000011   0.000014  -0.000001  -0.000033
   50  H  6  Z   -0.000205  -0.000189   0.000157   0.000181   0.000052
   51  H  6  S   -0.000412  -0.000624  -0.000323  -0.001060   0.000235
   52  H  6  X    0.000000   0.000000   0.000000   0.000000   0.000000
   53  H  6  Y   -0.000109  -0.000127   0.000452   0.000391   0.000290
   54  H  6  Z    0.000556   0.000707  -0.000149  -0.000311  -0.000588
   55  H  7  S   -0.000147   0.000156   0.000138  -0.000138  -0.000010
   56  H  7  S   -0.001763   0.002457   0.000841  -0.001222  -0.001552
   57  H  7  X    0.000000   0.000000   0.000000   0.000000   0.000000
   58  H  7  Y    0.000002  -0.000011   0.000014   0.000001   0.000033
   59  H  7  Z    0.000200  -0.000195  -0.000156   0.000182   0.000052
   60  H  7  S    0.000395  -0.000635   0.000317  -0.001062   0.000235
   61  H  7  X    0.000000   0.000000   0.000000   0.000000   0.000000
   62  H  7  Y   -0.000105   0.000130   0.000450  -0.000393  -0.000290
   63  H  7  Z   -0.000536   0.000722   0.000147  -0.000312  -0.000588
   64  H  8  S    0.000109   0.000092  -0.000171  -0.000158  -0.000008
   65  H  8  S    0.002374   0.003059  -0.000280   0.001143   0.000252
   66  H  8  X    0.000000   0.000000   0.000000   0.000000   0.000000
   67  H  8  Y    0.000156   0.000165  -0.000141  -0.000149   0.000003
   68  H  8  Z    0.000154   0.000147  -0.000086  -0.000108  -0.000031
   69  H  8  S   -0.000445  -0.000492  -0.000768  -0.000549  -0.000464
   70  H  8  X    0.000000   0.000000   0.000000   0.000000   0.000000
   71  H  8  Y   -0.000554  -0.000811   0.000029  -0.000218  -0.000076
   72  H  8  Z   -0.000473  -0.000562   0.000028  -0.000167  -0.000064
   73  H  9  S   -0.000106   0.000095   0.000170  -0.000159  -0.000008
   74  H  9  S   -0.002287   0.003124   0.000287   0.001142   0.000252
   75  H  9  X    0.000000   0.000000   0.000000   0.000000   0.000000
   76  H  9  Y    0.000151  -0.000169  -0.000140   0.000150  -0.000003
   77  H  9  Z   -0.000150   0.000151   0.000085  -0.000108  -0.000031
   78  H  9  S    0.000431  -0.000504   0.000765  -0.000553  -0.000464
   79  H  9  X    0.000000   0.000000   0.000000   0.000000   0.000000
   80  H  9  Y   -0.000532   0.000826   0.000031   0.000217   0.000076
   81  H  9  Z    0.000457  -0.000576  -0.000029  -0.000167  -0.000064
   82  C 10  S    0.000001   0.000067  -0.000001  -0.000321   1.004027
   83  C 10  S    0.000002   0.000116  -0.000002  -0.000705   0.007797
   84  C 10  S    0.000079   0.005640   0.000074   0.025219  -0.044772
   85  C 10  X    0.000000   0.000000   0.000000   0.000000   0.000000
   86  C 10  Y    0.000039  -0.000001  -0.000068   0.000000   0.000000
   87  C 10  Z    0.000000   0.000007   0.000000   0.000028   0.000047
   88  C 10  X    0.000000   0.000000   0.000000   0.000000   0.000000
   89  C 10  Y    0.002540  -0.000036   0.052451  -0.000154   0.000000
   90  C 10  Z   -0.000049  -0.003491  -0.000036  -0.012211   0.006453
   91  C 10 XX    0.000000   0.000026   0.000000  -0.000161  -0.000743
   92  C 10 YY   -0.000002  -0.000115   0.000001   0.000294   0.000593
   93  C 10 ZZ    0.000001   0.000089   0.000000  -0.000134   0.000150
   94  C 10 XY    0.000000   0.000000   0.000000   0.000000   0.000000
   95  C 10 XZ    0.000000   0.000000   0.000000   0.000000   0.000000
   96  C 10 YZ   -0.000072   0.000001   0.000007   0.000000   0.000000
   97  C 10  S    0.000041   0.002930   0.000020   0.006977  -0.063015
   98  C 10  X    0.000000   0.000000   0.000000   0.000000   0.000000
   99  C 10  Y   -0.001724   0.000024   0.012426  -0.000036   0.000000
  100  C 10  Z    0.000033   0.002332  -0.000003  -0.001185   0.013333
  101  C 10 XX    0.000002   0.000164   0.000000  -0.000086   0.004699
  102  C 10 YY   -0.000029  -0.002048  -0.000008  -0.002627  -0.009763
  103  C 10 ZZ    0.000026   0.001884   0.000008   0.002713   0.005064
  104  C 10 XY    0.000000   0.000000   0.000000   0.000000   0.000000
  105  C 10 XZ    0.000000   0.000000   0.000000   0.000000   0.000000
  106  C 10 YZ   -0.002078   0.000029  -0.013994   0.000041   0.000000
  107  C 11  S    0.000016  -0.000040   0.004209   0.003935   0.009090
  108  C 11  S    0.000013  -0.000075   0.000224  -0.000192  -0.000092
  109  C 11  S    0.002608   0.007009  -0.008096   0.015763   0.013669
  110  C 11  X    0.000000   0.000000   0.000000   0.000000   0.000000
  111  C 11  Y   -0.000065  -0.000082   0.000040   0.000133  -0.000157
  112  C 11  Z   -0.000026  -0.000009   0.000072  -0.000002   0.000048
  113  C 11  X    0.000000   0.000000   0.000000   0.000000   0.000000
  114  C 11  Y    0.003664   0.004175   0.049243   0.020823  -0.013368
  115  C 11  Z    0.000631   0.003980   0.001424   0.010389   0.007030
  116  C 11 XX    0.000001  -0.000034   0.000096   0.000115   0.000182
  117  C 11 YY   -0.000054  -0.000046   0.000026   0.000054  -0.000022
  118  C 11 ZZ    0.000052   0.000080  -0.000122  -0.000169  -0.000160
  119  C 11 XY    0.000000   0.000000   0.000000   0.000000   0.000000
  120  C 11 XZ    0.000000   0.000000   0.000000   0.000000   0.000000
  121  C 11 YZ    0.000013  -0.000014   0.000084   0.000093   0.000091
  122  C 11  S   -0.001153  -0.002430   0.002994   0.006955   0.031506
  123  C 11  X    0.000000   0.000000   0.000000   0.000000   0.000000
  124  C 11  Y   -0.001964  -0.000951   0.014511   0.002454  -0.009052
  125  C 11  Z   -0.001122  -0.001087   0.002999   0.001830   0.004387
  126  C 11 XX    0.000620   0.000364  -0.000453  -0.000076  -0.000576
  127  C 11 YY   -0.002520  -0.002131   0.000233  -0.002548  -0.001420
  128  C 11 ZZ    0.001900   0.001767   0.000220   0.002624   0.001997
  129  C 11 XY    0.000000   0.000000   0.000000   0.000000   0.000000
  130  C 11 XZ    0.000000   0.000000   0.000000   0.000000   0.000000
  131  C 11 YZ    0.000983   0.001067   0.013509   0.004842  -0.003708
  132  C 12  S   -0.000017  -0.000040  -0.004186   0.003959   0.009090
  133  C 12  S   -0.000015  -0.000075  -0.000225  -0.000190  -0.000092
  134  C 12  S   -0.002411   0.007080   0.008189   0.015715   0.013669
  135  C 12  X    0.000000   0.000000   0.000000   0.000000   0.000000
  136  C 12  Y   -0.000063   0.000084   0.000039  -0.000133   0.000157
  137  C 12  Z    0.000026  -0.000010  -0.000072  -0.000001   0.000048
  138  C 12  X    0.000000   0.000000   0.000000   0.000000   0.000000
  139  C 12  Y    0.003545  -0.004276   0.049120  -0.021111   0.013368
  140  C 12  Z   -0.000519   0.003996  -0.001363   0.010397   0.007030
  141  C 12 XX   -0.000002  -0.000034  -0.000095   0.000115   0.000182
  142  C 12 YY    0.000052  -0.000047  -0.000026   0.000055  -0.000022
  143  C 12 ZZ   -0.000050   0.000081   0.000121  -0.000170  -0.000160
  144  C 12 XY    0.000000   0.000000   0.000000   0.000000   0.000000
  145  C 12 XZ    0.000000   0.000000   0.000000   0.000000   0.000000
  146  C 12 YZ    0.000014   0.000013   0.000084  -0.000094  -0.000091
  147  C 12  S    0.001084  -0.002461  -0.002953   0.006972   0.031506
  148  C 12  X    0.000000   0.000000   0.000000   0.000000   0.000000
  149  C 12  Y   -0.001936   0.001006   0.014497  -0.002539   0.009052
  150  C 12  Z    0.001092  -0.001118  -0.002988   0.001847   0.004387
  151  C 12 XX   -0.000610   0.000381   0.000452  -0.000078  -0.000576
  152  C 12 YY    0.002460  -0.002200  -0.000248  -0.002547  -0.001420
  153  C 12 ZZ   -0.001850   0.001819  -0.000204   0.002625   0.001997
  154  C 12 XY    0.000000   0.000000   0.000000   0.000000   0.000000
  155  C 12 XZ    0.000000   0.000000   0.000000   0.000000   0.000000
  156  C 12 YZ    0.000953  -0.001094   0.013480  -0.004921   0.003708
  157  C 13  S    0.000160   0.000237   0.712134   0.707743  -0.000442
  158  C 13  S    0.000212   0.000342   0.005595   0.005171  -0.000547
  159  C 13  S    0.004108   0.001519  -0.048655  -0.029804   0.006882
  160  C 13  X    0.000000   0.000000   0.000000   0.000000   0.000000
  161  C 13  Y    0.000239   0.000218   0.000779   0.000809   0.000125
  162  C 13  Z   -0.000072  -0.000064  -0.000219  -0.000201   0.000034
  163  C 13  X    0.000000   0.000000   0.000000   0.000000   0.000000
  164  C 13  Y    0.010499   0.010799   0.023370   0.017787  -0.001699
  165  C 13  Z   -0.004772  -0.002864   0.013276   0.003304  -0.006763
  166  C 13 XX    0.000011   0.000028  -0.000524  -0.000585  -0.000137
  167  C 13 YY   -0.000165  -0.000180   0.000490   0.000485   0.000137
  168  C 13 ZZ    0.000154   0.000152   0.000034   0.000100   0.000000
  169  C 13 XY    0.000000   0.000000   0.000000   0.000000   0.000000
  170  C 13 XZ    0.000000   0.000000   0.000000   0.000000   0.000000
  171  C 13 YZ    0.000110   0.000114  -0.000118  -0.000139  -0.000053
  172  C 13  S    0.014158   0.012084  -0.032207  -0.008302  -0.002136
  173  C 13  X    0.000000   0.000000   0.000000   0.000000   0.000000
  174  C 13  Y    0.002269   0.003648   0.005769   0.006088   0.001154
  175  C 13  Z   -0.001908  -0.002312   0.004157   0.000847  -0.002893
  176  C 13 XX   -0.001247  -0.000712   0.002262   0.001774  -0.000708
  177  C 13 YY    0.001375   0.000438  -0.001456  -0.002291   0.000621
  178  C 13 ZZ   -0.000128   0.000274  -0.000806   0.000518   0.000087
  179  C 13 XY    0.000000   0.000000   0.000000   0.000000   0.000000
  180  C 13 XZ    0.000000   0.000000   0.000000   0.000000   0.000000
  181  C 13 YZ   -0.003037  -0.003233  -0.007810  -0.005304  -0.000691
  182  C 14  S   -0.000153   0.000241  -0.707975   0.711903  -0.000442
  183  C 14  S   -0.000202   0.000348  -0.005565   0.005204  -0.000547
  184  C 14  S   -0.004063   0.001633   0.048480  -0.030089   0.006882
  185  C 14  X    0.000000   0.000000   0.000000   0.000000   0.000000
  186  C 14  Y    0.000233  -0.000225   0.000775  -0.000814  -0.000125
  187  C 14  Z    0.000070  -0.000066   0.000218  -0.000202   0.000034
  188  C 14  X    0.000000   0.000000   0.000000   0.000000   0.000000
  189  C 14  Y    0.010192  -0.011090   0.023266  -0.017923   0.001699
  190  C 14  Z    0.004690  -0.002996  -0.013256   0.003381  -0.006763
  191  C 14 XX   -0.000011   0.000028   0.000520  -0.000588  -0.000137
  192  C 14 YY    0.000160  -0.000184  -0.000487   0.000488   0.000137
  193  C 14 ZZ   -0.000149   0.000157  -0.000033   0.000100   0.000000
  194  C 14 XY    0.000000   0.000000   0.000000   0.000000   0.000000
  195  C 14 XZ    0.000000   0.000000   0.000000   0.000000   0.000000
  196  C 14 YZ    0.000107  -0.000117  -0.000118   0.000140   0.000053
  197  C 14  S   -0.013813   0.012476   0.032158  -0.008490  -0.002136
  198  C 14  X    0.000000   0.000000   0.000000   0.000000   0.000000
  199  C 14  Y    0.002166  -0.003710   0.005734  -0.006121  -0.001154
  200  C 14  Z    0.001842  -0.002364  -0.004152   0.000871  -0.002893
  201  C 14 XX    0.001226  -0.000747  -0.002251   0.001787  -0.000708
  202  C 14 YY   -0.001362   0.000477   0.001442  -0.002300   0.000621
  203  C 14 ZZ    0.000136   0.000270   0.000809   0.000513   0.000087
  204  C 14 XY    0.000000   0.000000   0.000000   0.000000   0.000000
  205  C 14 XZ    0.000000   0.000000   0.000000   0.000000   0.000000
  206  C 14 YZ   -0.002945   0.003316  -0.007779   0.005350   0.000691
  207  N 15  S    0.719027   0.699116   0.000069   0.000126   0.000054
  208  N 15  S    0.003770   0.003613   0.000530   0.000624   0.000083
  209  N 15  S   -0.016928  -0.015752  -0.004817  -0.005274  -0.002117
  210  N 15  X    0.000000   0.000000   0.000000   0.000000   0.000000
  211  N 15  Y   -0.000270  -0.000254  -0.000211  -0.000222   0.000020
  212  N 15  Z    0.000097   0.000088   0.000080   0.000077  -0.000016
  213  N 15  X    0.000000   0.000000   0.000000   0.000000   0.000000
  214  N 15  Y    0.004288   0.003641   0.001803   0.002618   0.001181
  215  N 15  Z   -0.001159  -0.000795  -0.000826  -0.000721   0.000056
  216  N 15 XX   -0.000178  -0.000182   0.000214   0.000217   0.000043
  217  N 15 YY    0.000083   0.000097  -0.000099  -0.000098  -0.000024
  218  N 15 ZZ    0.000094   0.000085  -0.000115  -0.000119  -0.000019
  219  N 15 XY    0.000000   0.000000   0.000000   0.000000   0.000000
  220  N 15 XZ    0.000000   0.000000   0.000000   0.000000   0.000000
  221  N 15 YZ    0.000008   0.000005   0.000032   0.000046   0.000038
  222  N 15  S   -0.013469  -0.014788   0.000249  -0.006078  -0.000033
  223  N 15  X    0.000000   0.000000   0.000000   0.000000   0.000000
  224  N 15  Y    0.002303   0.002304   0.000248   0.000893   0.000072
  225  N 15  Z   -0.001004  -0.000794   0.000061  -0.001331   0.000156
  226  N 15 XX    0.000497   0.000466  -0.000283  -0.000070  -0.000058
  227  N 15 YY   -0.000705  -0.000673  -0.000314  -0.000716  -0.000232
  228  N 15 ZZ    0.000209   0.000207   0.000597   0.000786   0.000290
  229  N 15 XY    0.000000   0.000000   0.000000   0.000000   0.000000
  230  N 15 XZ    0.000000   0.000000   0.000000   0.000000   0.000000
  231  N 15 YZ    0.000292   0.000255   0.000805   0.000662  -0.000230
  232  N 16  S   -0.699149   0.718996  -0.000068   0.000127   0.000054
  233  N 16  S   -0.003667   0.003717  -0.000526   0.000627   0.000083
  234  N 16  S    0.016479  -0.016221   0.004786  -0.005302  -0.002117
  235  N 16  X    0.000000   0.000000   0.000000   0.000000   0.000000
  236  N 16  Y   -0.000263   0.000262  -0.000210   0.000223  -0.000020
  237  N 16  Z   -0.000095   0.000091  -0.000080   0.000078  -0.000016
  238  N 16  X    0.000000   0.000000   0.000000   0.000000   0.000000
  239  N 16  Y    0.004185  -0.003760   0.001788  -0.002628  -0.001181
  240  N 16  Z    0.001136  -0.000827   0.000822  -0.000725   0.000056
  241  N 16 XX    0.000172  -0.000187  -0.000213   0.000218   0.000043
  242  N 16 YY   -0.000081   0.000099   0.000098  -0.000099  -0.000024
  243  N 16 ZZ   -0.000092   0.000088   0.000114  -0.000119  -0.000019
  244  N 16 XY    0.000000   0.000000   0.000000   0.000000   0.000000
  245  N 16 XZ    0.000000   0.000000   0.000000   0.000000   0.000000
  246  N 16 YZ    0.000008  -0.000005   0.000032  -0.000046  -0.000038
  247  N 16  S    0.013049  -0.015160  -0.000285  -0.006077  -0.000033
  248  N 16  X    0.000000   0.000000   0.000000   0.000000   0.000000
  249  N 16  Y    0.002237  -0.002367   0.000243  -0.000895  -0.000072
  250  N 16  Z    0.000981  -0.000822  -0.000069  -0.001331   0.000156
  251  N 16 XX   -0.000483   0.000480   0.000282  -0.000072  -0.000058
  252  N 16 YY    0.000686  -0.000693   0.000310  -0.000718  -0.000232
  253  N 16 ZZ   -0.000203   0.000213  -0.000592   0.000790   0.000290
  254  N 16 XY    0.000000   0.000000   0.000000   0.000000   0.000000
  255  N 16 XZ    0.000000   0.000000   0.000000   0.000000   0.000000
  256  N 16 YZ    0.000285  -0.000263   0.000801  -0.000666   0.000230

                      6          7          8          9         10
                  -11.3772   -11.3772    -1.4235    -1.4225    -1.2676
                     A          A          A          A          A   
    1  H  1  S    0.000000  -0.000126   0.013049   0.000000   0.106153
    2  H  1  S   -0.000001  -0.001362   0.023422   0.000000   0.153107
    3  H  1  X    0.000000   0.000000   0.000000   0.000000   0.000000
    4  H  1  Y   -0.000036   0.000000   0.000000   0.000135   0.000000
    5  H  1  Z    0.000000  -0.000140  -0.002608   0.000000  -0.014639
    6  H  1  S    0.000001   0.001295   0.023370   0.000000  -0.005885
    7  H  1  X    0.000000   0.000000   0.000000   0.000000   0.000000
    8  H  1  Y   -0.002127   0.000001   0.000000  -0.002894   0.000000
    9  H  1  Z    0.000000  -0.000157  -0.005947   0.000000  -0.031760
   10  H  2  S   -0.000288   0.000247   0.018851  -0.015905   0.068940
   11  H  2  S    0.001909   0.006507   0.023529  -0.048411   0.049283
   12  H  2  X    0.000000   0.000000   0.000000   0.000000   0.000000
   13  H  2  Y    0.000049   0.000062  -0.000363   0.000215  -0.001114
   14  H  2  Z    0.000044  -0.000099   0.003620  -0.002735   0.010962
   15  H  2  S    0.005633  -0.001666   0.005165  -0.001184  -0.005696
   16  H  2  X    0.000000   0.000000   0.000000   0.000000   0.000000
   17  H  2  Y   -0.001551   0.000157  -0.006834   0.005954   0.006187
   18  H  2  Z    0.000140   0.002203   0.005815  -0.012469   0.005369
   19  H  3  S    0.000289   0.000247   0.018851   0.015905   0.068940
   20  H  3  S   -0.001902   0.006509   0.023528   0.048411   0.049283
   21  H  3  X    0.000000   0.000000   0.000000   0.000000   0.000000
   22  H  3  Y    0.000049  -0.000062   0.000363   0.000215   0.001114
   23  H  3  Z   -0.000045  -0.000099   0.003620   0.002735   0.010962
   24  H  3  S   -0.005635  -0.001660   0.005165   0.001184  -0.005696
   25  H  3  X    0.000000   0.000000   0.000000   0.000000   0.000000
   26  H  3  Y   -0.001552  -0.000156   0.006834   0.005955  -0.006187
   27  H  3  Z   -0.000137   0.002203   0.005815   0.012469   0.005369
   28  H  4  S    0.000098  -0.000049   0.044398  -0.043695   0.031728
   29  H  4  S    0.001066   0.000571   0.043617  -0.027179  -0.026473
   30  H  4  X    0.000000   0.000000   0.000000   0.000000   0.000000
   31  H  4  Y   -0.000049   0.000069   0.001274  -0.001482  -0.001549
   32  H  4  Z    0.000053  -0.000046  -0.008013   0.008028  -0.004439
   33  H  4  S   -0.001685   0.001884  -0.009722   0.000797   0.018211
   34  H  4  X    0.000000   0.000000   0.000000   0.000000   0.000000
   35  H  4  Y   -0.000790   0.000573  -0.016683   0.013049   0.007469
   36  H  4  Z   -0.000042  -0.000539  -0.012615   0.007795   0.015980
   37  H  5  S   -0.000098  -0.000049   0.044397   0.043696   0.031728
   38  H  5  S   -0.001066   0.000572   0.043617   0.027180  -0.026473
   39  H  5  X    0.000000   0.000000   0.000000   0.000000   0.000000
   40  H  5  Y   -0.000049  -0.000068  -0.001274  -0.001482   0.001549
   41  H  5  Z   -0.000053  -0.000046  -0.008013  -0.008028  -0.004439
   42  H  5  S    0.001687   0.001882  -0.009722  -0.000797   0.018211
   43  H  5  X    0.000000   0.000000   0.000000   0.000000   0.000000
   44  H  5  Y   -0.000791  -0.000572   0.016683   0.013049  -0.007469
   45  H  5  Z    0.000041  -0.000539  -0.012615  -0.007796   0.015980
   46  H  6  S    0.000055  -0.000099   0.104853  -0.106236  -0.043793
   47  H  6  S   -0.001705   0.000385   0.044411  -0.054169   0.009836
   48  H  6  X    0.000000   0.000000   0.000000   0.000000   0.000000
   49  H  6  Y   -0.000066   0.000058  -0.004695   0.004695   0.001958
   50  H  6  Z   -0.000052   0.000071   0.017887  -0.018130  -0.007346
   51  H  6  S   -0.000151  -0.000316  -0.002246   0.001363   0.002600
   52  H  6  X    0.000000   0.000000   0.000000   0.000000   0.000000
   53  H  6  Y    0.000165  -0.000202  -0.004227   0.005814   0.001420
   54  H  6  Z   -0.000417   0.000051   0.013235  -0.015804   0.002131
   55  H  7  S   -0.000056  -0.000099   0.104852   0.106237  -0.043793
   56  H  7  S    0.001705   0.000383   0.044410   0.054169   0.009836
   57  H  7  X    0.000000   0.000000   0.000000   0.000000   0.000000
   58  H  7  Y   -0.000066  -0.000058   0.004695   0.004695  -0.001958
   59  H  7  Z    0.000052   0.000071   0.017887   0.018130  -0.007346
   60  H  7  S    0.000151  -0.000317  -0.002246  -0.001363   0.002600
   61  H  7  X    0.000000   0.000000   0.000000   0.000000   0.000000
   62  H  7  Y    0.000165   0.000202   0.004227   0.005814  -0.001420
   63  H  7  Z    0.000417   0.000050   0.013235   0.015804   0.002131
   64  H  8  S    0.000169  -0.000172   0.104767  -0.106259  -0.053477
   65  H  8  S    0.001169   0.000091   0.018003  -0.014252  -0.023539
   66  H  8  X    0.000000   0.000000   0.000000   0.000000   0.000000
   67  H  8  Y    0.000010   0.000032  -0.016000   0.016271   0.006062
   68  H  8  Z    0.000025  -0.000048  -0.009806   0.009897   0.005764
   69  H  8  S   -0.000126   0.000534  -0.001809   0.003007  -0.000616
   70  H  8  X    0.000000   0.000000   0.000000   0.000000   0.000000
   71  H  8  Y   -0.000289  -0.000189  -0.002464   0.002066   0.007297
   72  H  8  Z   -0.000039  -0.000102  -0.003336   0.002081   0.003772
   73  H  9  S   -0.000169  -0.000172   0.104766   0.106260  -0.053477
   74  H  9  S   -0.001169   0.000092   0.018003   0.014252  -0.023539
   75  H  9  X    0.000000   0.000000   0.000000   0.000000   0.000000
   76  H  9  Y    0.000010  -0.000032   0.016000   0.016271  -0.006062
   77  H  9  Z   -0.000025  -0.000048  -0.009805  -0.009897   0.005764
   78  H  9  S    0.000126   0.000534  -0.001809  -0.003007  -0.000616
   79  H  9  X    0.000000   0.000000   0.000000   0.000000   0.000000
   80  H  9  Y   -0.000289   0.000189   0.002463   0.002066  -0.007297
   81  H  9  Z    0.000039  -0.000102  -0.003336  -0.002081   0.003772
   82  C 10  S   -0.000007  -0.013605  -0.002755   0.000000  -0.020365
   83  C 10  S    0.000000  -0.000364   0.032832   0.000000   0.275654
   84  C 10  S    0.000014   0.026242  -0.178064  -0.000001   0.235496
   85  C 10  X    0.000000   0.000000   0.000000   0.000000   0.000000
   86  C 10  Y   -0.000171   0.000000   0.000000  -0.016856   0.000000
   87  C 10  Z    0.000000  -0.000057  -0.005598   0.000000  -0.050047
   88  C 10  X    0.000000   0.000000   0.000000   0.000000   0.000000
   89  C 10  Y   -0.061794   0.000033   0.000001  -0.133329   0.000000
   90  C 10  Z   -0.000007  -0.012110   0.079338   0.000000  -0.039963
   91  C 10 XX    0.000000   0.000233  -0.002034   0.000000  -0.014908
   92  C 10 YY    0.000000  -0.000113   0.006208   0.000000   0.020215
   93  C 10 ZZ    0.000000  -0.000120  -0.004174   0.000000  -0.005307
   94  C 10 XY    0.000000   0.000000   0.000000   0.000000   0.000000
   95  C 10 XZ    0.000000   0.000000   0.000000   0.000000   0.000000
   96  C 10 YZ   -0.000082   0.000000   0.000000   0.000480   0.000000
   97  C 10  S    0.000022   0.041100  -0.003379   0.000000  -0.055308
   98  C 10  X    0.000000   0.000000   0.000000   0.000000   0.000000
   99  C 10  Y   -0.019067   0.000010   0.000000   0.053882   0.000000
  100  C 10  Z   -0.000004  -0.006544  -0.010265   0.000000  -0.001908
  101  C 10 XX    0.000000  -0.000535  -0.005210   0.000000  -0.011142
  102  C 10 YY   -0.000002  -0.003461   0.037285   0.000000   0.086022
  103  C 10 ZZ    0.000002   0.003997  -0.032075   0.000000  -0.074879
  104  C 10 XY    0.000000   0.000000   0.000000   0.000000   0.000000
  105  C 10 XZ    0.000000   0.000000   0.000000   0.000000   0.000000
  106  C 10 YZ    0.016392  -0.000009   0.000000   0.020962   0.000000
  107  C 11  S   -0.710109   0.710205  -0.005194   0.003529  -0.017910
  108  C 11  S   -0.006600   0.005552   0.052778  -0.045613   0.202065
  109  C 11  S    0.055577  -0.020437  -0.148532   0.203206   0.056797
  110  C 11  X    0.000000   0.000000   0.000000   0.000000   0.000000
  111  C 11  Y   -0.000028   0.000114   0.022695  -0.027332  -0.049263
  112  C 11  Z   -0.000294   0.000218   0.014212  -0.012349   0.052444
  113  C 11  X    0.000000   0.000000   0.000000   0.000000   0.000000
  114  C 11  Y   -0.035691   0.006448  -0.136301  -0.026414   0.056642
  115  C 11  Z    0.013890   0.003046  -0.064197   0.057261  -0.043374
  116  C 11 XX    0.000241  -0.000450  -0.002379   0.001854  -0.008939
  117  C 11 YY   -0.000184   0.000334   0.007134  -0.004854   0.013459
  118  C 11 ZZ   -0.000057   0.000116  -0.004755   0.003000  -0.004520
  119  C 11 XY    0.000000   0.000000   0.000000   0.000000   0.000000
  120  C 11 XZ    0.000000   0.000000   0.000000   0.000000   0.000000
  121  C 11 YZ   -0.000100   0.000049   0.003657  -0.003287  -0.004208
  122  C 11  S    0.047934  -0.042763   0.032964  -0.023878  -0.106791
  123  C 11  X    0.000000   0.000000   0.000000   0.000000   0.000000
  124  C 11  Y    0.002551   0.001223   0.009467  -0.059521  -0.038991
  125  C 11  Z    0.011374  -0.005583   0.011539  -0.020782  -0.007179
  126  C 11 XX   -0.003248   0.002759  -0.006197   0.008101   0.001544
  127  C 11 YY    0.004855  -0.005606   0.038055  -0.042600   0.045535
  128  C 11 ZZ   -0.001608   0.002847  -0.031859   0.034499  -0.047079
  129  C 11 XY    0.000000   0.000000   0.000000   0.000000   0.000000
  130  C 11 XZ    0.000000   0.000000   0.000000   0.000000   0.000000
  131  C 11 YZ   -0.008530   0.001327  -0.038960  -0.000721   0.028418
  132  C 12  S    0.710873   0.709440  -0.005194  -0.003529  -0.017910
  133  C 12  S    0.006606   0.005545   0.052777   0.045613   0.202065
  134  C 12  S   -0.055599  -0.020377  -0.148530  -0.203207   0.056797
  135  C 12  X    0.000000   0.000000   0.000000   0.000000   0.000000
  136  C 12  Y   -0.000028  -0.000114  -0.022695  -0.027332   0.049263
  137  C 12  Z    0.000294   0.000218   0.014212   0.012349   0.052444
  138  C 12  X    0.000000   0.000000   0.000000   0.000000   0.000000
  139  C 12  Y   -0.035698  -0.006409   0.136302  -0.026413  -0.056642
  140  C 12  Z   -0.013887   0.003061  -0.064196  -0.057262  -0.043374
  141  C 12 XX   -0.000241  -0.000450  -0.002379  -0.001854  -0.008939
  142  C 12 YY    0.000185   0.000334   0.007134   0.004854   0.013459
  143  C 12 ZZ    0.000057   0.000116  -0.004755  -0.003000  -0.004520
  144  C 12 XY    0.000000   0.000000   0.000000   0.000000   0.000000
  145  C 12 XZ    0.000000   0.000000   0.000000   0.000000   0.000000
  146  C 12 YZ   -0.000100  -0.000049  -0.003657  -0.003287   0.004208
  147  C 12  S   -0.047980  -0.042712   0.032964   0.023878  -0.106791
  148  C 12  X    0.000000   0.000000   0.000000   0.000000   0.000000
  149  C 12  Y    0.002550  -0.001226  -0.009466  -0.059521   0.038991
  150  C 12  Z   -0.011380  -0.005571   0.011539   0.020783  -0.007179
  151  C 12 XX    0.003251   0.002755  -0.006197  -0.008101   0.001544
  152  C 12 YY   -0.004861  -0.005601   0.038055   0.042601   0.045535
  153  C 12 ZZ    0.001611   0.002845  -0.031858  -0.034500  -0.047079
  154  C 12 XY    0.000000   0.000000   0.000000   0.000000   0.000000
  155  C 12 XZ    0.000000   0.000000   0.000000   0.000000   0.000000
  156  C 12 YZ   -0.008531  -0.001318   0.038960  -0.000721  -0.028418
  157  C 13  S    0.004233  -0.004375  -0.014234   0.013534  -0.003129
  158  C 13  S   -0.000142  -0.000147   0.151641  -0.151523   0.074154
  159  C 13  S    0.007848   0.002164   0.141877  -0.022058   0.020394
  160  C 13  X    0.000000   0.000000   0.000000   0.000000   0.000000
  161  C 13  Y    0.000106  -0.000015   0.076233  -0.078902  -0.095182
  162  C 13  Z    0.000081   0.000000  -0.040909   0.040768  -0.014377
  163  C 13  X    0.000000   0.000000   0.000000   0.000000   0.000000
  164  C 13  Y   -0.003763   0.000570  -0.169320   0.127229   0.004386
  165  C 13  Z   -0.003317  -0.003756  -0.028743  -0.027822   0.057055
  166  C 13 XX   -0.000145   0.000163  -0.012193   0.011948  -0.002452
  167  C 13 YY    0.000046  -0.000149   0.019161  -0.018668   0.004035
  168  C 13 ZZ    0.000100  -0.000014  -0.006968   0.006720  -0.001583
  169  C 13 XY    0.000000   0.000000   0.000000   0.000000   0.000000
  170  C 13 XZ    0.000000   0.000000   0.000000   0.000000   0.000000
  171  C 13 YZ    0.000129  -0.000145  -0.009327   0.009102   0.011397
  172  C 13  S   -0.023351   0.019966  -0.024880   0.019828   0.123553
  173  C 13  X    0.000000   0.000000   0.000000   0.000000   0.000000
  174  C 13  Y    0.003042  -0.005097   0.023616  -0.000042  -0.018618
  175  C 13  Z    0.004792  -0.003261   0.002079  -0.002802  -0.033096
  176  C 13 XX    0.000617  -0.000487   0.002405  -0.003068  -0.001490
  177  C 13 YY   -0.001098  -0.000775   0.010211  -0.018082   0.033617
  178  C 13 ZZ    0.000481   0.001262  -0.012616   0.021151  -0.032127
  179  C 13 XY    0.000000   0.000000   0.000000   0.000000   0.000000
  180  C 13 XZ    0.000000   0.000000   0.000000   0.000000   0.000000
  181  C 13 YZ    0.002535  -0.001198   0.076971  -0.059549  -0.012183
  182  C 14  S   -0.004238  -0.004371  -0.014234  -0.013535  -0.003129
  183  C 14  S    0.000142  -0.000147   0.151640   0.151524   0.074154
  184  C 14  S   -0.007846   0.002173   0.141876   0.022060   0.020394
  185  C 14  X    0.000000   0.000000   0.000000   0.000000   0.000000
  186  C 14  Y    0.000106   0.000015  -0.076232  -0.078903   0.095182
  187  C 14  Z   -0.000081   0.000001  -0.040908  -0.040769  -0.014377
  188  C 14  X    0.000000   0.000000   0.000000   0.000000   0.000000
  189  C 14  Y   -0.003764  -0.000566   0.169319   0.127231  -0.004386
  190  C 14  Z    0.003313  -0.003759  -0.028743   0.027821   0.057055
  191  C 14 XX    0.000146   0.000163  -0.012192  -0.011948  -0.002452
  192  C 14 YY   -0.000046  -0.000149   0.019161   0.018668   0.004035
  193  C 14 ZZ   -0.000100  -0.000014  -0.006968  -0.006721  -0.001583
  194  C 14 XY    0.000000   0.000000   0.000000   0.000000   0.000000
  195  C 14 XZ    0.000000   0.000000   0.000000   0.000000   0.000000
  196  C 14 YZ    0.000129   0.000145   0.009327   0.009102  -0.011397
  197  C 14  S    0.023372   0.019940  -0.024880  -0.019828   0.123553
  198  C 14  X    0.000000   0.000000   0.000000   0.000000   0.000000
  199  C 14  Y    0.003048   0.005094  -0.023616  -0.000042   0.018618
  200  C 14  Z   -0.004796  -0.003255   0.002079   0.002802  -0.033096
  201  C 14 XX   -0.000618  -0.000487   0.002405   0.003068  -0.001490
  202  C 14 YY    0.001098  -0.000776   0.010211   0.018082   0.033617
  203  C 14 ZZ   -0.000480   0.001263  -0.012616  -0.021151  -0.032127
  204  C 14 XY    0.000000   0.000000   0.000000   0.000000   0.000000
  205  C 14 XZ    0.000000   0.000000   0.000000   0.000000   0.000000
  206  C 14 YZ    0.002537   0.001195  -0.076970  -0.059550   0.012183
  207  N 15  S    0.000001  -0.000037  -0.013548   0.013765   0.003085
  208  N 15  S    0.000022  -0.000083   0.257495  -0.260060  -0.088561
  209  N 15  S    0.002039  -0.001198   0.279031  -0.276195  -0.090152
  210  N 15  X    0.000000   0.000000   0.000000   0.000000   0.000000
  211  N 15  Y   -0.000045   0.000041  -0.044834   0.044767  -0.019457
  212  N 15  Z    0.000003  -0.000008   0.017144  -0.017308  -0.000832
  213  N 15  X    0.000000   0.000000   0.000000   0.000000   0.000000
  214  N 15  Y   -0.000212   0.000362  -0.082167   0.088401   0.003850
  215  N 15  Z   -0.000232   0.000776   0.020222  -0.020233  -0.014621
  216  N 15 XX   -0.000008   0.000000  -0.007679   0.007754   0.001489
  217  N 15 YY    0.000002   0.000019   0.008123  -0.008174   0.000585
  218  N 15 ZZ    0.000006  -0.000019  -0.000443   0.000420  -0.002074
  219  N 15 XY    0.000000   0.000000   0.000000   0.000000   0.000000
  220  N 15 XZ    0.000000   0.000000   0.000000   0.000000   0.000000
  221  N 15 YZ    0.000016  -0.000001  -0.004185   0.004347   0.000301
  222  N 15  S    0.003875  -0.001565  -0.027218   0.040994  -0.026130
  223  N 15  X    0.000000   0.000000   0.000000   0.000000   0.000000
  224  N 15  Y   -0.000785   0.000764   0.000144  -0.010614   0.004609
  225  N 15  Z   -0.001165   0.000565  -0.000858  -0.004691   0.006051
  226  N 15 XX    0.000291  -0.000298   0.015662  -0.014398  -0.005521
  227  N 15 YY   -0.000243  -0.000036   0.005350  -0.008817   0.005836
  228  N 15 ZZ   -0.000048   0.000334  -0.021012   0.023216  -0.000315
  229  N 15 XY    0.000000   0.000000   0.000000   0.000000   0.000000
  230  N 15 XZ    0.000000   0.000000   0.000000   0.000000   0.000000
  231  N 15 YZ   -0.000353  -0.000020  -0.008419   0.008576   0.011211
  232  N 16  S   -0.000001  -0.000037  -0.013548  -0.013765   0.003085
  233  N 16  S   -0.000022  -0.000083   0.257492   0.260063  -0.088561
  234  N 16  S   -0.002041  -0.001196   0.279028   0.276198  -0.090152
  235  N 16  X    0.000000   0.000000   0.000000   0.000000   0.000000
  236  N 16  Y   -0.000045  -0.000041   0.044834   0.044768   0.019457
  237  N 16  Z   -0.000003  -0.000008   0.017144   0.017308  -0.000832
  238  N 16  X    0.000000   0.000000   0.000000   0.000000   0.000000
  239  N 16  Y   -0.000213  -0.000362   0.082166   0.088402  -0.003850
  240  N 16  Z    0.000233   0.000775   0.020222   0.020233  -0.014621
  241  N 16 XX    0.000008   0.000000  -0.007679  -0.007755   0.001489
  242  N 16 YY   -0.000002   0.000019   0.008122   0.008174   0.000585
  243  N 16 ZZ   -0.000006  -0.000019  -0.000443  -0.000420  -0.002074
  244  N 16 XY    0.000000   0.000000   0.000000   0.000000   0.000000
  245  N 16 XZ    0.000000   0.000000   0.000000   0.000000   0.000000
  246  N 16 YZ    0.000016   0.000001   0.004184   0.004347  -0.000301
  247  N 16  S   -0.003876  -0.001560  -0.027218  -0.040994  -0.026130
  248  N 16  X    0.000000   0.000000   0.000000   0.000000   0.000000
  249  N 16  Y   -0.000785  -0.000763  -0.000144  -0.010614  -0.004609
  250  N 16  Z    0.001166   0.000564  -0.000858   0.004691   0.006051
  251  N 16 XX   -0.000292  -0.000297   0.015662   0.014399  -0.005521
  252  N 16 YY    0.000243  -0.000037   0.005350   0.008817   0.005836
  253  N 16 ZZ    0.000049   0.000334  -0.021012  -0.023216  -0.000315
  254  N 16 XY    0.000000   0.000000   0.000000   0.000000   0.000000
  255  N 16 XZ    0.000000   0.000000   0.000000   0.000000   0.000000
  256  N 16 YZ   -0.000353   0.000020   0.008419   0.008576  -0.011211

                     11         12         13         14         15
                   -1.1809    -1.0662    -0.9869    -0.9566    -0.9087
                     A          A          A          A          A   
    1  H  1  S    0.000000  -0.085809   0.000000  -0.164846   0.000000
    2  H  1  S    0.000000  -0.148672   0.000000  -0.153621   0.000000
    3  H  1  X    0.000000   0.000000   0.000000   0.000000   0.000000
    4  H  1  Y   -0.002638   0.000000   0.003611   0.000000   0.003875
    5  H  1  Z    0.000000   0.010943   0.000000   0.014386   0.000000
    6  H  1  S    0.000000   0.050320   0.000000   0.045109   0.000000
    7  H  1  X    0.000000   0.000000   0.000000   0.000000   0.000000
    8  H  1  Y    0.037682   0.000000   0.019671   0.000000  -0.023933
    9  H  1  Z    0.000000   0.038099   0.000000   0.023883   0.000000
   10  H  2  S   -0.074831  -0.002634   0.093150   0.135632  -0.028439
   11  H  2  S   -0.107617  -0.009397   0.135986   0.179501   0.026209
   12  H  2  X    0.000000   0.000000   0.000000   0.000000   0.000000
   13  H  2  Y   -0.000496   0.004378  -0.001380   0.001782  -0.002422
   14  H  2  Z   -0.010409   0.000261   0.009265   0.012608  -0.002112
   15  H  2  S    0.050240  -0.008127   0.030984  -0.037387   0.021390
   16  H  2  X    0.000000   0.000000   0.000000   0.000000   0.000000
   17  H  2  Y    0.015093  -0.014232   0.014226  -0.001734   0.000109
   18  H  2  Z   -0.021452  -0.007149   0.028835   0.034551   0.012654
   19  H  3  S    0.074831  -0.002634  -0.093150   0.135632   0.028439
   20  H  3  S    0.107617  -0.009397  -0.135986   0.179501  -0.026209
   21  H  3  X    0.000000   0.000000   0.000000   0.000000   0.000000
   22  H  3  Y   -0.000496  -0.004378  -0.001380  -0.001782  -0.002422
   23  H  3  Z    0.010409   0.000261  -0.009265   0.012608   0.002112
   24  H  3  S   -0.050240  -0.008127  -0.030984  -0.037387  -0.021390
   25  H  3  X    0.000000   0.000000   0.000000   0.000000   0.000000
   26  H  3  Y    0.015093   0.014232   0.014226   0.001734   0.000109
   27  H  3  Z    0.021452  -0.007149  -0.028835   0.034551  -0.012654
   28  H  4  S   -0.070021   0.110875  -0.141739  -0.135292   0.109445
   29  H  4  S   -0.083174   0.103684  -0.177547  -0.159463   0.126906
   30  H  4  X    0.000000   0.000000   0.000000   0.000000   0.000000
   31  H  4  Y    0.002077  -0.000102  -0.002748  -0.002268  -0.001323
   32  H  4  Z    0.008391  -0.011642   0.012640   0.010392  -0.007986
   33  H  4  S   -0.000453  -0.011615   0.021555   0.004992   0.006314
   34  H  4  X    0.000000   0.000000   0.000000   0.000000   0.000000
   35  H  4  Y    0.002127   0.001619   0.007264  -0.006695   0.007677
   36  H  4  Z    0.009446  -0.013222   0.037371   0.036007  -0.030042
   37  H  5  S    0.070021   0.110875   0.141739  -0.135292  -0.109445
   38  H  5  S    0.083174   0.103685   0.177547  -0.159463  -0.126906
   39  H  5  X    0.000000   0.000000   0.000000   0.000000   0.000000
   40  H  5  Y    0.002077   0.000102  -0.002748   0.002268  -0.001323
   41  H  5  Z   -0.008391  -0.011642  -0.012640   0.010392   0.007986
   42  H  5  S    0.000453  -0.011615  -0.021555   0.004992  -0.006314
   43  H  5  X    0.000000   0.000000   0.000000   0.000000   0.000000
   44  H  5  Y    0.002127  -0.001619   0.007264   0.006695   0.007677
   45  H  5  Z   -0.009446  -0.013222  -0.037371   0.036007   0.030042
   46  H  6  S    0.070668  -0.111921   0.169455   0.134769  -0.095184
   47  H  6  S   -0.002374  -0.005080   0.060051   0.066651  -0.069413
   48  H  6  X    0.000000   0.000000   0.000000   0.000000   0.000000
   49  H  6  Y   -0.001757   0.000127   0.000199  -0.002070   0.006512
   50  H  6  Z    0.010997  -0.015147   0.018545   0.012446  -0.006857
   51  H  6  S   -0.006461  -0.002702  -0.015853  -0.006064  -0.001767
   52  H  6  X    0.000000   0.000000   0.000000   0.000000   0.000000
   53  H  6  Y   -0.005463   0.006123  -0.007256   0.003374  -0.012373
   54  H  6  Z   -0.001696   0.001616   0.012760   0.017929  -0.019460
   55  H  7  S   -0.070668  -0.111921  -0.169455   0.134769   0.095184
   56  H  7  S    0.002374  -0.005080  -0.060051   0.066651   0.069413
   57  H  7  X    0.000000   0.000000   0.000000   0.000000   0.000000
   58  H  7  Y   -0.001757  -0.000127   0.000199   0.002070   0.006512
   59  H  7  Z   -0.010997  -0.015147  -0.018545   0.012446   0.006857
   60  H  7  S    0.006461  -0.002702   0.015853  -0.006064   0.001767
   61  H  7  X    0.000000   0.000000   0.000000   0.000000   0.000000
   62  H  7  Y   -0.005463  -0.006123  -0.007256  -0.003374  -0.012373
   63  H  7  Z    0.001696   0.001616  -0.012760   0.017929   0.019460
   64  H  8  S    0.089553  -0.117857   0.057855  -0.085457   0.232833
[...]
             28  H  4  S      0.76928     0.52464
             29  H  4  S      0.58218     0.14633
             30  H  4  X      0.00349     0.00830
             31  H  4  Y      0.00295     0.00954
             32  H  4  Z      0.02258     0.04250
             33  H  4  S      0.00529     0.01833
             34  H  4  X     -0.00861     0.04150
             35  H  4  Y     -0.00993     0.03847
             36  H  4  Z      0.00737     0.06768
             37  H  5  S      0.76928     0.52464
             38  H  5  S      0.58218     0.14633
             39  H  5  X      0.00349     0.00830
             40  H  5  Y      0.00295     0.00954
             41  H  5  Z      0.02258     0.04250
             42  H  5  S      0.00529     0.01833
             43  H  5  X     -0.00861     0.04150
             44  H  5  Y     -0.00993     0.03847
             45  H  5  Z      0.00737     0.06768
             46  H  6  S      0.74322     0.47594
             47  H  6  S      0.24964     0.11461
             48  H  6  X      0.01368     0.03384
             49  H  6  Y      0.00568     0.02051
             50  H  6  Z      0.03611     0.06154
             51  H  6  S     -0.01288     0.01507
             52  H  6  X      0.00696     0.07077
             53  H  6  Y     -0.01814     0.04333
             54  H  6  Z     -0.00741     0.07563
             55  H  7  S      0.74322     0.47594
             56  H  7  S      0.24964     0.11461
             57  H  7  X      0.01368     0.03384
             58  H  7  Y      0.00568     0.02051
             59  H  7  Z      0.03611     0.06154
             60  H  7  S     -0.01288     0.01507
             61  H  7  X      0.00696     0.07077
             62  H  7  Y     -0.01814     0.04333
             63  H  7  Z     -0.00741     0.07563
             64  H  8  S      0.74429     0.47289
             65  H  8  S      0.19151     0.11585
             66  H  8  X      0.01452     0.03496
             67  H  8  Y      0.02535     0.04628
             68  H  8  Z      0.01644     0.03508
             69  H  8  S     -0.00702     0.01405
             70  H  8  X      0.00974     0.07538
             71  H  8  Y     -0.01750     0.05836
             72  H  8  Z     -0.03014     0.05578
             73  H  9  S      0.74429     0.47289
             74  H  9  S      0.19151     0.11585
             75  H  9  X      0.01452     0.03496
             76  H  9  Y      0.02535     0.04628
             77  H  9  Z      0.01644     0.03508
             78  H  9  S     -0.00702     0.01405
             79  H  9  X      0.00974     0.07538
             80  H  9  Y     -0.01750     0.05836
             81  H  9  Z     -0.03014     0.05578
             82  C 10  S      2.00819     1.80622
             83  C 10  S      0.68237     0.45100
             84  C 10  S      0.55021     0.17280
             85  C 10  X      0.38373     0.30963
             86  C 10  Y      0.80211     0.66680
             87  C 10  Z      0.74920     0.62807
             88  C 10  X      0.30132     0.22839
             89  C 10  Y     -0.21269     0.22243
             90  C 10  Z      0.29284     0.27723
             91  C 10 XX      0.02625     0.05543
             92  C 10 YY      0.01458     0.16880
             93  C 10 ZZ      0.03168     0.14576
             94  C 10 XY      0.00390     0.04794
             95  C 10 XZ      0.02401     0.00585
             96  C 10 YZ      0.00000     0.04855
             97  C 10  S     -0.17362     0.04367
             98  C 10  X     -0.01112     0.02779
             99  C 10  Y      0.16044     0.04615
            100  C 10  Z      0.14340     0.03141
            101  C 10 XX     -0.08086     0.00649
            102  C 10 YY      0.03069     0.14577
            103  C 10 ZZ      0.03418     0.11872
            104  C 10 XY     -0.00084     0.19797
            105  C 10 XZ      0.20885     0.01737
            106  C 10 YZ      0.00000     0.14848
            107  C 11  S      2.00870     1.80501
            108  C 11  S      0.63897     0.42858
            109  C 11  S      0.08673     0.17416
            110  C 11  X      0.65492     0.54079
            111  C 11  Y      0.72400     0.61326
            112  C 11  Z      0.71205     0.60125
            113  C 11  X      0.48732     0.30688
            114  C 11  Y     -0.14538     0.22245
            115  C 11  Z      0.13313     0.28376
            116  C 11 XX      0.02273     0.05445
            117  C 11 YY      0.01182     0.16320
            118  C 11 ZZ      0.00697     0.14613
            119  C 11 XY      0.00622     0.01092
            120  C 11 XZ      0.02614     0.00754
            121  C 11 YZ      0.00000     0.05677
            122  C 11  S     -0.41269     0.04385
            123  C 11  X      0.01456     0.02847
            124  C 11  Y      0.11960     0.04045
            125  C 11  Z      0.12551     0.03129
            126  C 11 XX     -0.12435     0.00703
            127  C 11 YY     -0.00093     0.12494
            128  C 11 ZZ      0.01860     0.12484
            129  C 11 XY      0.00030     0.06994
            130  C 11 XZ     -0.13229     0.01985
            131  C 11 YZ      0.00000     0.13716
            132  C 12  S      2.00870     1.80501
            133  C 12  S      0.63897     0.42858
            134  C 12  S      0.08673     0.17416
            135  C 12  X      0.65492     0.54079
            136  C 12  Y      0.72400     0.61326
            137  C 12  Z      0.71205     0.60125
            138  C 12  X      0.48732     0.30688
            139  C 12  Y     -0.14538     0.22245
            140  C 12  Z      0.13313     0.28376
            141  C 12 XX      0.02273     0.05445
            142  C 12 YY      0.01182     0.16320
            143  C 12 ZZ      0.00697     0.14613
            144  C 12 XY      0.00622     0.01092
            145  C 12 XZ      0.02614     0.00754
            146  C 12 YZ      0.00000     0.05677
            147  C 12  S     -0.41269     0.04385
            148  C 12  X      0.01456     0.02847
            149  C 12  Y      0.11960     0.04045
            150  C 12  Z      0.12551     0.03129
            151  C 12 XX     -0.12435     0.00703
            152  C 12 YY     -0.00093     0.12494
            153  C 12 ZZ      0.01860     0.12484
            154  C 12 XY      0.00030     0.06994
            155  C 12 XZ     -0.13229     0.01985
            156  C 12 YZ      0.00000     0.13716
            157  C 13  S      2.00801     1.79245
            158  C 13  S      0.68339     0.45108
            159  C 13  S      0.61617     0.17049
            160  C 13  X      0.39568     0.31905
            161  C 13  Y      0.75998     0.63574
            162  C 13  Z      0.76892     0.63734
            163  C 13  X      0.21545     0.21712
            164  C 13  Y     -0.05653     0.20412
            165  C 13  Z     -0.15719     0.26849
            166  C 13 XX      0.02965     0.05230
            167  C 13 YY      0.02120     0.17931
            168  C 13 ZZ      0.04422     0.15302
            169  C 13 XY      0.00563     0.07423
            170  C 13 XZ      0.03122     0.00801
            171  C 13 YZ      0.00000     0.06314
            172  C 13  S     -0.17414     0.04200
            173  C 13  X      0.01400     0.02398
            174  C 13  Y      0.01511     0.03616
            175  C 13  Z      0.05513     0.02665
            176  C 13 XX     -0.10218     0.00614
            177  C 13 YY     -0.00371     0.15146
            178  C 13 ZZ      0.02425     0.12146
            179  C 13 XY     -0.01181     0.19674
            180  C 13 XZ     -0.06369     0.01899
            181  C 13 YZ      0.00000     0.14394
            182  C 14  S      2.00801     1.79245
            183  C 14  S      0.68339     0.45108
            184  C 14  S      0.61617     0.17049
            185  C 14  X      0.39568     0.31905
            186  C 14  Y      0.75998     0.63574
            187  C 14  Z      0.76892     0.63734
            188  C 14  X      0.21545     0.21712
            189  C 14  Y     -0.05653     0.20412
            190  C 14  Z     -0.15719     0.26849
            191  C 14 XX      0.02965     0.05230
            192  C 14 YY      0.02120     0.17931
            193  C 14 ZZ      0.04422     0.15302
            194  C 14 XY      0.00563     0.07423
            195  C 14 XZ      0.03122     0.00801
            196  C 14 YZ      0.00000     0.06314
            197  C 14  S     -0.17414     0.04200
            198  C 14  X      0.01400     0.02398
            199  C 14  Y      0.01511     0.03616
            200  C 14  Z      0.05513     0.02665
            201  C 14 XX     -0.10218     0.00614
            202  C 14 YY     -0.00371     0.15146
            203  C 14 ZZ      0.02425     0.12146
            204  C 14 XY     -0.01181     0.19674
            205  C 14 XZ     -0.06369     0.01899
            206  C 14 YZ      0.00000     0.14394
            207  N 15  S      2.00570     1.84243
            208  N 15  S      0.71304     0.48422
            209  N 15  S      0.77758     0.24117
            210  N 15  X      0.90743     0.82311
            211  N 15  Y      0.77211     0.66954
            212  N 15  Z      0.77266     0.66749
            213  N 15  X      0.73706     0.46101
            214  N 15  Y      0.28097     0.36180
            215  N 15  Z      0.29972     0.38919
            216  N 15 XX      0.00875     0.08633
            217  N 15 YY      0.00537     0.15208
            218  N 15 ZZ      0.00336     0.14209
            219  N 15 XY      0.00049     0.00441
            220  N 15 XZ      0.01192     0.00071
            221  N 15 YZ      0.00000     0.02264
            222  N 15  S     -0.08053     0.05023
            223  N 15  X      0.03722     0.03766
            224  N 15  Y      0.02925     0.04554
            225  N 15  Z      0.00110     0.03945
            226  N 15 XX     -0.01614     0.01049
            227  N 15 YY      0.00164     0.09971
            228  N 15 ZZ      0.01428     0.07245
            229  N 15 XY      0.00170     0.03708
            230  N 15 XZ     -0.01783     0.00487
            231  N 15 YZ      0.00000     0.10760
            232  N 16  S      2.00570     1.84243
            233  N 16  S      0.71304     0.48422
            234  N 16  S      0.77758     0.24117
            235  N 16  X      0.90743     0.82311
            236  N 16  Y      0.77211     0.66954
            237  N 16  Z      0.77266     0.66749
            238  N 16  X      0.73706     0.46101
            239  N 16  Y      0.28097     0.36180
            240  N 16  Z      0.29972     0.38919
            241  N 16 XX      0.00875     0.08633
            242  N 16 YY      0.00537     0.15208
            243  N 16 ZZ      0.00336     0.14209
            244  N 16 XY      0.00049     0.00441
            245  N 16 XZ      0.01192     0.00071
            246  N 16 YZ      0.00000     0.02264
            247  N 16  S     -0.08053     0.05023
            248  N 16  X      0.03722     0.03766
            249  N 16  Y      0.02925     0.04554
            250  N 16  Z      0.00110     0.03945
            251  N 16 XX     -0.01614     0.01049
            252  N 16 YY      0.00164     0.09971
            253  N 16 ZZ      0.01428     0.07245
            254  N 16 XY      0.00170     0.03708
            255  N 16 XZ     -0.01783     0.00487
            256  N 16 YZ      0.00000     0.10760

          ----- MULLIKEN ATOMIC OVERLAP POPULATIONS -----
          (OFF-DIAGONAL ELEMENTS NEED TO BE MULTIPLIED BY 2)

             1           2           3           4           5

    1    1.8140967
    2    0.0640696   1.8305112
    3    0.0640696  -0.0779849   1.8305113
    4   -0.0647600   0.0424331  -0.0021034   1.3242030
    5   -0.0647600  -0.0021034   0.0424331   0.0064406   1.3242028
    6   -0.0012275   0.0248724  -0.0001446   0.0149837   0.0000054
    7   -0.0012275  -0.0001446   0.0248724   0.0000054   0.0149837
    8   -0.0001418  -0.0053569   0.0003529  -0.0258413  -0.0001404
    9   -0.0001418   0.0003529  -0.0053569  -0.0001404  -0.0258413
   10   -0.0921754   0.6133872   0.6133870  -0.0999670  -0.0999671
   11   -0.0951868  -0.6812356   0.0760062   0.1928334   0.0475389
   12   -0.0951866   0.0760061  -0.6812354   0.0475388   0.1928337
   13   -0.0291727  -0.3532462   0.0468920  -0.0752270   0.0126498
   14   -0.0291728   0.0468920  -0.3532463   0.0126499  -0.0752270
   15    0.0219355  -0.0316505   0.0054668   0.0030020  -0.0014506
   16    0.0219356   0.0054668  -0.0316505  -0.0014506   0.0030019

             6           7           8           9          10

    6    0.8224571
    7   -0.0000079   0.8224572
    8   -0.1782078   0.0000011   0.8111647
    9    0.0000011  -0.1782078   0.0000065   0.8111646
   10   -0.0413836  -0.0413837  -0.0052892  -0.0052891   9.0141976
   11    0.1626533   0.0043712  -0.0277389  -0.0047814  -1.8612694
   12    0.0043712   0.1626534  -0.0047814  -0.0277389  -1.8612698
   13   -0.2129876  -0.0003478  -0.0597830  -0.0002135  -0.0081853
   14   -0.0003478  -0.2129876  -0.0002135  -0.0597831  -0.0081852
   15    0.4219837  -0.0001711   0.4430975   0.0000649  -0.0738951
   16   -0.0001711   0.4219836   0.0000649   0.4430976  -0.0738952

            11          12          13          14          15

   11    9.1449695
   12   -0.7656953   9.1449691
   13   -0.9458771  -0.1240324   6.5191892
   14   -0.1240327  -0.9458774  -0.0236116   6.5191899
   15   -0.1255588  -0.0143686   0.3642381   0.0084514   6.2464097
   16   -0.0143686  -0.1255588   0.0084514   0.3642381  -0.0007175

            16

   16    6.2464097

          TOTAL MULLIKEN AND LOWDIN ATOMIC POPULATIONS
       ATOM         MULL.POP.    CHARGE          LOW.POP.     CHARGE
    1 H             1.512954   -0.512954         0.912392    0.087608
    2 H             1.552269   -0.552269         0.927628    0.072372
    3 H             1.552269   -0.552269         0.927628    0.072372
    4 H             1.374600   -0.374600         0.897298    0.102702
    5 H             1.374600   -0.374600         0.897298    0.102702
    6 H             1.016850   -0.016850         0.911238    0.088762
    7 H             1.016850   -0.016850         0.911238    0.088762
    8 H             0.947193    0.052807         0.908625    0.091375
    9 H             0.947193    0.052807         0.908625    0.091375
   10 C             5.968817    0.031183         6.018703   -0.018703
   11 C             4.982628    1.017372         6.042969   -0.042969
   12 C             4.982628    1.017372         6.042969   -0.042969
   13 C             5.118736    0.881264         5.993416    0.006584
   14 C             5.118736    0.881264         5.993416    0.006584
   15 N             7.266837   -0.266837         6.853277    0.146723
   16 N             7.266837   -0.266837         6.853277    0.146723

          MULLIKEN SPHERICAL HARMONIC POPULATIONS
       ATOM           S       P       D      F      G      H      I    TOTAL
    1 H             1.53   -0.01    0.00   0.00   0.00   0.00   0.00    1.51
    2 H             1.54    0.01    0.00   0.00   0.00   0.00   0.00    1.55
    3 H             1.54    0.01    0.00   0.00   0.00   0.00   0.00    1.55
    4 H             1.36    0.02    0.00   0.00   0.00   0.00   0.00    1.37
    5 H             1.36    0.02    0.00   0.00   0.00   0.00   0.00    1.37
    6 H             0.98    0.04    0.00   0.00   0.00   0.00   0.00    1.02
    7 H             0.98    0.04    0.00   0.00   0.00   0.00   0.00    1.02
    8 H             0.93    0.02    0.00   0.00   0.00   0.00   0.00    0.95
    9 H             0.93    0.02    0.00   0.00   0.00   0.00   0.00    0.95
   10 C             3.07    2.61    0.29   0.00   0.00   0.00   0.00    5.97
   11 C             2.32    2.83   -0.16   0.00   0.00   0.00   0.00    4.98
   12 C             2.32    2.83   -0.16   0.00   0.00   0.00   0.00    4.98
   13 C             3.13    2.01   -0.03   0.00   0.00   0.00   0.00    5.12
   14 C             3.13    2.01   -0.03   0.00   0.00   0.00   0.00    5.12
   15 N             3.42    3.84    0.01   0.00   0.00   0.00   0.00    7.27
   16 N             3.42    3.84    0.01   0.00   0.00   0.00   0.00    7.27

          -------------------------------
          BOND ORDER AND VALENCE ANALYSIS     BOND ORDER THRESHOLD=0.050
          -------------------------------

                   BOND                       BOND                       BOND
  ATOM PAIR DIST  ORDER      ATOM PAIR DIST  ORDER      ATOM PAIR DIST  ORDER
    1  10  1.088  0.433        1  11  2.117  0.160        1  12  2.117  0.160
    1  13  2.585 -0.099        1  14  2.585 -0.099        2  10  2.145  0.760
    2  12  2.744 -0.143        3  10  2.145  0.760        3  11  2.744 -0.143
    4  11  2.131  0.063        4  12  4.003  0.080        4  13  1.085  0.680
    4  15  2.033  0.053        5  11  4.003  0.080        5  12  2.131  0.063
    5  14  1.085  0.680        5  16  2.033  0.053        6   8  1.717 -0.091
    6  11  2.661  0.087        6  13  2.035 -0.164        6  15  1.007  1.116
    7   9  1.717 -0.091        7  12  2.661  0.087        7  14  2.035 -0.164
    7  16  1.007  1.116        8  13  2.029 -0.072        8  15  1.005  1.070
    9  14  2.029 -0.072        9  16  1.005  1.070       10  11  1.386  1.866
   10  12  1.386  1.866       11  12  2.466 -0.301       11  13  1.379  1.237
   11  14  3.703  0.082       12  13  3.703  0.082       12  14  1.379  1.237
   13  14  4.788  0.099       13  15  1.318  1.185       14  16  1.318  1.185

                       TOTAL       BONDED        FREE
      ATOM            VALENCE     VALENCE     VALENCE
    1 H                 0.597       0.597       0.000
    2 H                 0.644       0.644       0.000
    3 H                 0.644       0.644       0.000
    4 H                 0.846       0.846       0.000
    5 H                 0.846       0.846       0.000
    6 H                 0.969       0.969       0.000
    7 H                 0.969       0.969       0.000
    8 H                 0.884       0.884       0.000
    9 H                 0.884       0.884       0.000
   10 C                 5.622       5.622       0.000
   11 C                 3.092       3.092       0.000
   12 C                 3.092       3.092       0.000
   13 C                 2.984       2.984       0.000
   14 C                 2.984       2.984       0.000
   15 N                 3.386       3.386       0.000
   16 N                 3.386       3.386       0.000

          ---------------------
          ELECTROSTATIC MOMENTS
          ---------------------

 POINT   1           X           Y           Z (BOHR)    CHARGE
                 0.000000    0.000000   -0.002041        1.00 (A.U.)
         DX          DY          DZ         /D/  (DEBYE)
     0.000000    0.000000    0.901997    0.901997
 ...... END OF PROPERTY EVALUATION ......
 ON NODE 0, STEP CPU TIME =     0.11 TOTAL CPU TIME =       56.8 (    0.9 MIN)
 TOTAL WALL CLOCK TIME=       60.0 SECONDS, CPU UTILIZATION IS  94.60%
                586068  WORDS OF DYNAMIC MEMORY USED
 EXECUTION OF GAMESS TERMINATED NORMALLY Tue Sep 19 10:40:02 2017
 DDI: 1128 bytes (0.0 MB / 0 MWords) used by master data server.

 ----------------------------------------
 CPU timing information for all processes
 ========================================
 0: 56.643540 + 0.136008 = 56.779548
 1: 56.583536 + 0.084005 = 56.667541
 2: 56.575535 + 0.120007 = 56.695542
 3: 56.543533 + 0.092005 = 56.635538
 ----------------------------------------
 ddikick.x: exited gracefully.
----- accounting info -----
Tue Sep 19 10:40:05 CEST 2017
Files used on the master node lpqlx139 were:
-rw-r--r-- 1 scemama scemama  1007541 Sep 19 10:40 /tmp/gamess/C5.dat
-rw-r--r-- 1 scemama scemama     1042 Sep 19 10:39 /tmp/gamess/C5.F05
-rw-r--r-- 1 scemama scemama 22773120 Sep 19 10:40 /tmp/gamess/C5.F10
0.088u 0.024s 1:00.43 0.1%	0+0k 0+8io 0pf+0w
