----- GAMESS execution script -----
This job is running on host lpqlx139
under operating system Linux at Tue Sep 19 10:51:13 CEST 2017
Available scratch disk space (Kbyte units) at beginning of the job is
Filesystem                                             1K-blocks     Used Available Use% Mounted on
/dev/disk/by-uuid/e0d35396-14d3-4d0f-9cc9-2a3899cf3e0f  51175000 49536884   1638116  97% /

 Distributed Data Interface kickoff program.
 Initiating 8 compute processes on 1 nodes to run the following command:
 /usr/local/gamess/gamess.01.x C7 

          ******************************************************
          *         GAMESS VERSION = 22 FEB 2006 (R5)          *
          *             FROM IOWA STATE UNIVERSITY             *
          * M.W.SCHMIDT, K.K.BALDRIDGE, J.A.BOATZ, S.T.ELBERT, *
          *   M.S.GORDON, J.H.JENSEN, S.KOSEKI, N.MATSUNAGA,   *
          *          K.A.NGUYEN, S.J.SU, T.L.WINDUS,           *
          *       TOGETHER WITH M.DUPUIS, J.A.MONTGOMERY       *
          *         J.COMPUT.CHEM.  14, 1347-1363(1993)        *
          ***************** AMD 64 BIT VERSION *****************

     SINCE 1993, STUDENTS AND POSTDOCS WORKING AT IOWA STATE UNIVERSITY
     AND ALSO IN THEIR VARIOUS JOBS AFTER LEAVING ISU HAVE MADE IMPORTANT
     CONTRIBUTIONS TO THE CODE:
     IVANA ADAMOVIC, CHRISTINE AIKENS, YURI ALEXEEV, POOJA ARORA, ROB BELL,
     PRADIPTA BANDYOPADHYAY, BRETT BODE, GALINA CHABAN, WEI CHEN,
     CHEOL HO CHOI, PAUL DAY, TIM DUDLEY, DMITRI FEDOROV, GRAHAM FLETCHER,
     MARK FREITAG, KURT GLAESEMANN, GRANT MERRILL, TAKESHI NAGATA,
     HEATHER NETZLOFF, BOSILJKA NJEGIC, RYAN OLSON, MIKE PAK, JIM SHOEMAKER,
     LYUDMILA SLIPCHENKO, JIE SONG, TETSUYA TAKETSUGU, SIMON WEBB.

     ADDITIONAL CODE HAS BEEN PROVIDED BY COLLABORATORS IN OTHER GROUPS:
     IOWA STATE UNIVERSITY: JOE IVANIC, KLAUS RUEDENBERG
     UNIVERSITY OF TOKYO: KIMIHIKO HIRAO, HARUYUKI NAKANO, TAKAHITO
          NAKAJIMA, TAKAO TSUNEDA, MUNEAKI KAMIYA, SUSUMU YANAGISAWA,
          KIYOSHI YAGI
     UNIVERSITY OF SOUTHERN DENMARK: FRANK JENSEN
     UNIVERSITY OF IOWA: VISVALDAS KAIRYS, HUI LI
     NATIONAL INST. OF STANDARDS AND TECHNOLOGY: WALT STEVENS, DAVID GARMER
     UNIVERSITY OF PISA: BENEDETTA MENNUCCI, JACOPO TOMASI
     UNIVERSITY OF MEMPHIS: HENRY KURTZ, PRAKASHAN KORAMBATH
     UNIVERSITY OF ALBERTA: MARIUSZ KLOBUKOWSKI
     UNIVERSITY OF NEW ENGLAND: MARK SPACKMAN
     MIE UNIVERSITY: HIROAKI UMEDA
     MICHIGAN STATE UNIVERSITY:
          KAROL KOWALSKI, MARTA WLOCH, PIOTR PIECUCH
     UNIVERSITY OF SILESIA: MONIKA MUSIAL, STANISLAW KUCHARSKI
     FACULTES UNIVERSITAIRES NOTRE-DAME DE LA PAIX:
          OLIVIER QUINET, BENOIT CHAMPAGNE
     UNIVERSITY OF CALIFORNIA - SANTA BARBARA: BERNARD KIRTMAN
     INSTITUTE FOR MOLECULAR SCIENCE: KAZUYA ISHIMURA AND SHIGERU NAGASE
     UNIVERSITY OF NOTRE DAME: DAN CHIPMAN
     KYUSHU UNIVERSITY:
          FENG LONG GU, JACEK KORCHOWIEC, MARCIN MAKOWSKI, AND YURIKO AOKI
     PENNSYLVANIA STATE UNIVERSITY:
          TZVETELIN IORDANOV, CHET SWALINA, SHARON HAMMES-SCHIFFER


 PARALLEL VERSION RUNNING ON     8 PROCESSORS IN     1 NODES.

 EXECUTION OF GAMESS BEGUN Tue Sep 19 10:51:13 2017

            ECHO OF THE FIRST FEW INPUT CARDS -
 INPUT CARD> $CONTRL                                                                        
 INPUT CARD>   EXETYP=RUN COORD=UNIQUE  UNITS=ANGS                                          
 INPUT CARD>   RUNTYP=ENERGY SCFTYP=RHF CITYP=NONE                                          
 INPUT CARD>   MAXIT=100                                                                    
 INPUT CARD>   ISPHER=1                                                                     
 INPUT CARD>   MULT=1                                                                       
 INPUT CARD>   ICHARG=1                                                                     
 INPUT CARD>   MPLEVL=0                                                                     
 INPUT CARD> $END                                                                           
 INPUT CARD>                                                                                
 INPUT CARD> $GUESS                                                                         
 INPUT CARD>  GUESS=HUCKEL                                                                  
 INPUT CARD> $END                                                                           
 INPUT CARD>                                                                                
 INPUT CARD> $SCF                                                                           
 INPUT CARD>  DIRSCF=.T. DIIS=.T.                                                           
 INPUT CARD> $END                                                                           
 INPUT CARD>                                                                                
 INPUT CARD> $BASIS                                                                         
 INPUT CARD>  GBASIS=ACCD                                                                   
 INPUT CARD> $END                                                                           
 INPUT CARD>                                                                                
 INPUT CARD> $DATA                                                                          
 INPUT CARD>C3                                                                              
 INPUT CARD>C1                                                                              
 INPUT CARD>H  1.0           0.000000    0.000000    1.536359                               
 INPUT CARD>H  1.0           0.000000    1.170185   -1.312049                               
 INPUT CARD>H  1.0           0.000000   -1.170185   -1.312049                               
 INPUT CARD>H  1.0           0.000000    2.550740    1.449846                               
 INPUT CARD>H  1.0           0.000000   -2.550740    1.449846                               
 INPUT CARD>H  1.0           0.000000    3.507917   -1.487016                               
 INPUT CARD>H  1.0           0.000000   -3.507917   -1.487016                               
 INPUT CARD>H  1.0           0.000000    5.043211    1.035192                               
 INPUT CARD>H  1.0           0.000000   -5.043211    1.035192                               
 INPUT CARD>H  1.0           0.000000    5.628266   -0.578359                               
 INPUT CARD>H  1.0           0.000000   -5.628266   -0.578359                               
 INPUT CARD>C  6.0           0.000000    0.000000    0.451338                               
 INPUT CARD>C  6.0           0.000000    1.207990   -0.224465                               
 INPUT CARD>C  6.0           0.000000   -1.207990   -0.224465                               
 INPUT CARD>C  6.0           0.000000    2.465274    0.368365                               
 INPUT CARD>C  6.0           0.000000   -2.465274    0.368365                               
 INPUT CARD>C  6.0           0.000000    3.602804   -0.405932                               
 INPUT CARD>C  6.0           0.000000   -3.602804   -0.405932                               
 INPUT CARD>N  7.0           0.000000    4.844304    0.048913                               
 INPUT CARD>N  7.0           0.000000   -4.844304    0.048913                               
 INPUT CARD> $END                                                                           
 INPUT CARD>                                                                                

 ..... DONE SETTING UP THE RUN .....
    1000000 WORDS OF MEMORY AVAILABLE

     BASIS OPTIONS
     -------------
     GBASIS=ACCD         IGAUSS=       0      POLAR=NONE    
     NDFUNC=       0     NFFUNC=       0     DIFFSP=       F
     NPFUNC=       0      DIFFS=       F


     RUN TITLE
     ---------
 C3                                                                              

 THE POINT GROUP OF THE MOLECULE IS C1      
 THE ORDER OF THE PRINCIPAL AXIS IS     0

 ATOM      ATOMIC                      COORDINATES (BOHR)
           CHARGE         X                   Y                   Z
 H           1.0     0.0000000000        0.0000000000        2.9032975288
 H           1.0     0.0000000000        2.2113290049       -2.4794130925
 H           1.0     0.0000000000       -2.2113290049       -2.4794130925
 H           1.0     0.0000000000        4.8201996659        2.7398116644
 H           1.0     0.0000000000       -4.8201996659        2.7398116644
 H           1.0     0.0000000000        6.6290019177       -2.8100527794
 H           1.0     0.0000000000       -6.6290019177       -2.8100527794
 H           1.0     0.0000000000        9.5302868883        1.9562292247
 H           1.0     0.0000000000       -9.5302868883        1.9562292247
 H           1.0     0.0000000000       10.6358805260       -1.0929400325
 H           1.0     0.0000000000      -10.6358805260       -1.0929400325
 C           6.0     0.0000000000        0.0000000000        0.8529051478
 C           6.0     0.0000000000        2.2827700959       -0.4241773438
 C           6.0     0.0000000000       -2.2827700959       -0.4241773438
 C           6.0     0.0000000000        4.6586923447        0.6961089135
 C           6.0     0.0000000000       -4.6586923447        0.6961089135
 C           6.0     0.0000000000        6.8083123475       -0.7671002496
 C           6.0     0.0000000000       -6.8083123475       -0.7671002496
 N           7.0     0.0000000000        9.1544071612        0.0924321672
 N           7.0     0.0000000000       -9.1544071612        0.0924321672

          INTERNUCLEAR DISTANCES (ANGS.)
          ------------------------------

                    H              H              H              H         

  1  H               0.0000000      3.0794092      3.0794092      2.5522067 *  
  2  H               3.0794092      0.0000000      2.3403700 *    3.0877170    
  3  H               3.0794092      2.3403700 *    0.0000000      4.6339343    
  4  H               2.5522067 *    3.0877170      4.6339343      0.0000000    
  5  H               2.5522067 *    4.6339343      3.0877170      5.1014800    
  6  H               4.6310126      2.3442705 *    4.6813729      3.0889070    
  7  H               4.6310126      4.6813729      2.3442705 *    6.7329401    
  8  H               5.0680515      4.5287825      6.6419749      2.5267271 *  
  9  H               5.0680515      6.6419749      4.5287825      7.6052633    
 10  H               6.0124380      4.5180513      6.8379264      3.6857539    
 11  H               6.0124380      6.8379264      4.5180513      8.4267286    
 12  C               1.0850210 *    2.1163333 *    2.1163333 *    2.7392139 *  
 13  C               2.1353550 *    1.0882409 *    2.6150632 *    2.1462281 *  
 14  C               2.1353550 *    2.6150632 *    1.0882409 *    4.1147744    
 15  C               2.7279637 *    2.1215670 *    4.0050410      1.0848528 *  
 16  C               2.7279637 *    4.0050410      2.1215670 *    5.1312764    
 17  C               4.0930051      2.5958974 *    4.8582375      2.1332488 *  
 18  C               4.0930051      4.8582375      2.5958974 *    6.4272868    
 19  N               5.0675218      3.9180822      6.1665465      2.6875731 *  
 20  N               5.0675218      6.1665465      3.9180822      7.5265722    

                    H              H              H              H         

  1  H               2.5522067 *    4.6310126      4.6310126      5.0680515    
  2  H               4.6339343      2.3442705 *    4.6813729      4.5287825    
  3  H               3.0877170      4.6813729      2.3442705 *    6.6419749    
  4  H               5.1014800      3.0889070      6.7329401      2.5267271 *  
  5  H               0.0000000      6.7329401      3.0889070      7.6052633    
  6  H               6.7329401      0.0000000      7.0158340      2.9527379 *  
  7  H               3.0889070      7.0158340      0.0000000      8.9153420    
  8  H               7.6052633      2.9527379 *    8.9153420      0.0000000    
  9  H               2.5267271 *    8.9153420      2.9527379 *   10.0864220    
 10  H               8.4267286      2.3068458 *    9.1812579      1.7163438 *  
 11  H               3.6857539      9.1812579      2.3068458 *   10.7927739    
 12  C               2.7392139 *    4.0078296      4.0078296      5.0768950    
 13  C               4.1147744      2.6236805 *    4.8819887      4.0367878    
 14  C               2.1462281 *    4.8819887      2.6236805 *    6.3768526    
 15  C               5.1312764      2.1282723 *    6.2547142      2.6627838 *  
 16  C               1.0848528 *    6.2547142      2.1282723 *    7.5380372    
 17  C               6.4272868      1.0852401 *    7.1924332      2.0375502 *  
 18  C               2.1332488 *    7.1924332      1.0852401 *    8.7652960    
 19  N               7.5265722      2.0359293 *    8.4922714      1.0061363 *  
 20  N               2.6875731 *    8.4922714      2.0359293 *    9.9365839    

                    H              H              H              C         

  1  H               5.0680515      6.0124380      6.0124380      1.0850210 *  
  2  H               6.6419749      4.5180513      6.8379264      2.1163333 *  
  3  H               4.5287825      6.8379264      4.5180513      2.1163333 *  
  4  H               7.6052633      3.6857539      8.4267286      2.7392139 *  
  5  H               2.5267271 *    8.4267286      3.6857539      2.7392139 *  
  6  H               8.9153420      2.3068458 *    9.1812579      4.0078296    
  7  H               2.9527379 *    9.1812579      2.3068458 *    4.0078296    
  8  H              10.0864220      1.7163438 *   10.7927739      5.0768950    
  9  H               0.0000000     10.7927739      1.7163438 *    5.0768950    
 10  H              10.7927739      0.0000000     11.2565320      5.7216828    
 11  H               1.7163438 *   11.2565320      0.0000000      5.7216828    
 12  C               5.0768950      5.7216828      5.7216828      0.0000000    
 13  C               6.3768526      4.4344200      6.8454099      1.3841783 *  
 14  C               4.0367878      6.8454099      4.4344200      1.3841783 *  
 15  C               7.5380372      3.3016367      8.1487224      2.4666699 *  
 16  C               2.6627838 *    8.1487224      3.3016367      2.4666699 *  
 17  C               8.7652960      2.0327881 *    9.2326802      3.7033915    
 18  C               2.0375502 *    9.2326802      2.0327881 *    3.7033915    
 19  N               9.9365839      1.0040252 *   10.4913389      4.8609903    
 20  N               1.0061363 *   10.4913389      1.0040252 *    4.8609903    

                    C              C              C              C         

  1  H               2.1353550 *    2.1353550 *    2.7279637 *    2.7279637 *  
  2  H               1.0882409 *    2.6150632 *    2.1215670 *    4.0050410    
  3  H               2.6150632 *    1.0882409 *    4.0050410      2.1215670 *  
  4  H               2.1462281 *    4.1147744      1.0848528 *    5.1312764    
  5  H               4.1147744      2.1462281 *    5.1312764      1.0848528 *  
  6  H               2.6236805 *    4.8819887      2.1282723 *    6.2547142    
  7  H               4.8819887      2.6236805 *    6.2547142      2.1282723 *  
  8  H               4.0367878      6.3768526      2.6627838 *    7.5380372    
  9  H               6.3768526      4.0367878      7.5380372      2.6627838 *  
 10  H               4.4344200      6.8454099      3.3016367      8.1487224    
 11  H               6.8454099      4.4344200      8.1487224      3.3016367    
 12  C               1.3841783 *    1.3841783 *    2.4666699 *    2.4666699 *  
 13  C               0.0000000      2.4159800 *    1.3900397 *    3.7207951    
 14  C               2.4159800 *    0.0000000      3.7207951      1.3900397 *  
 15  C               1.3900397 *    3.7207951      0.0000000      4.9305480    
 16  C               3.7207951      1.3900397 *    4.9305480      0.0000000    
 17  C               2.4016795 *    4.8142153      1.3760488 *    6.1172793    
 18  C               4.8142153      2.4016795 *    6.1172793      1.3760488 *  
 19  N               3.6465758      6.0584650      2.4003819 *    7.3165552    
 20  N               6.0584650      3.6465758      7.3165552      2.4003819 *  

                    C              C              N              N         

  1  H               4.0930051      4.0930051      5.0675218      5.0675218    
  2  H               2.5958974 *    4.8582375      3.9180822      6.1665465    
  3  H               4.8582375      2.5958974 *    6.1665465      3.9180822    
  4  H               2.1332488 *    6.4272868      2.6875731 *    7.5265722    
  5  H               6.4272868      2.1332488 *    7.5265722      2.6875731 *  
  6  H               1.0852401 *    7.1924332      2.0359293 *    8.4922714    
  7  H               7.1924332      1.0852401 *    8.4922714      2.0359293 *  
  8  H               2.0375502 *    8.7652960      1.0061363 *    9.9365839    
  9  H               8.7652960      2.0375502 *    9.9365839      1.0061363 *  
 10  H               2.0327881 *    9.2326802      1.0040252 *   10.4913389    
 11  H               9.2326802      2.0327881 *   10.4913389      1.0040252 *  
 12  C               3.7033915      3.7033915      4.8609903      4.8609903    
 13  C               2.4016795 *    4.8142153      3.6465758      6.0584650    
 14  C               4.8142153      2.4016795 *    6.0584650      3.6465758    
 15  C               1.3760488 *    6.1172793      2.4003819 *    7.3165552    
 16  C               6.1172793      1.3760488 *    7.3165552      2.4003819 *  
 17  C               0.0000000      7.2056080      1.3221975 *    8.4593450    
 18  C               7.2056080      0.0000000      8.4593450      1.3221975 *  
 19  N               1.3221975 *    8.4593450      0.0000000      9.6886080    
 20  N               8.4593450      1.3221975 *    9.6886080      0.0000000    

  * ... LESS THAN  3.000


     ATOMIC BASIS SET
     ----------------
 THE CONTRACTED PRIMITIVE FUNCTIONS HAVE BEEN UNNORMALIZED
 THE CONTRACTED BASIS FUNCTIONS ARE NOW NORMALIZED TO UNITY

  SHELL TYPE  PRIMITIVE        EXPONENT          CONTRACTION COEFFICIENT(S)

 H         

      1   S       1            13.0100000    0.033498726390
      1   S       2             1.9620000    0.234800801174
      1   S       3             0.4446000    0.813682957883

      2   S       4             0.1220000    1.000000000000

      3   P       5             0.7270000    1.000000000000

      4   S       6             0.0297400    1.000000000000

      5   P       7             0.1410000    1.000000000000

 H         

      6   S       8            13.0100000    0.033498726390
      6   S       9             1.9620000    0.234800801174
      6   S      10             0.4446000    0.813682957883

      7   S      11             0.1220000    1.000000000000

      8   P      12             0.7270000    1.000000000000

      9   S      13             0.0297400    1.000000000000

     10   P      14             0.1410000    1.000000000000

 H         

     11   S      15            13.0100000    0.033498726390
     11   S      16             1.9620000    0.234800801174
     11   S      17             0.4446000    0.813682957883

     12   S      18             0.1220000    1.000000000000

     13   P      19             0.7270000    1.000000000000

     14   S      20             0.0297400    1.000000000000

     15   P      21             0.1410000    1.000000000000

 H         

     16   S      22            13.0100000    0.033498726390
     16   S      23             1.9620000    0.234800801174
     16   S      24             0.4446000    0.813682957883

     17   S      25             0.1220000    1.000000000000

     18   P      26             0.7270000    1.000000000000

     19   S      27             0.0297400    1.000000000000

     20   P      28             0.1410000    1.000000000000

 H         

     21   S      29            13.0100000    0.033498726390
     21   S      30             1.9620000    0.234800801174
     21   S      31             0.4446000    0.813682957883

     22   S      32             0.1220000    1.000000000000

     23   P      33             0.7270000    1.000000000000

     24   S      34             0.0297400    1.000000000000

     25   P      35             0.1410000    1.000000000000

 H         

     26   S      36            13.0100000    0.033498726390
     26   S      37             1.9620000    0.234800801174
     26   S      38             0.4446000    0.813682957883

     27   S      39             0.1220000    1.000000000000

     28   P      40             0.7270000    1.000000000000

     29   S      41             0.0297400    1.000000000000

     30   P      42             0.1410000    1.000000000000

 H         

     31   S      43            13.0100000    0.033498726390
     31   S      44             1.9620000    0.234800801174
     31   S      45             0.4446000    0.813682957883

     32   S      46             0.1220000    1.000000000000

     33   P      47             0.7270000    1.000000000000

     34   S      48             0.0297400    1.000000000000

     35   P      49             0.1410000    1.000000000000

 H         

     36   S      50            13.0100000    0.033498726390
     36   S      51             1.9620000    0.234800801174
     36   S      52             0.4446000    0.813682957883

     37   S      53             0.1220000    1.000000000000

     38   P      54             0.7270000    1.000000000000

     39   S      55             0.0297400    1.000000000000

     40   P      56             0.1410000    1.000000000000

 H         

     41   S      57            13.0100000    0.033498726390
     41   S      58             1.9620000    0.234800801174
     41   S      59             0.4446000    0.813682957883

     42   S      60             0.1220000    1.000000000000

     43   P      61             0.7270000    1.000000000000

     44   S      62             0.0297400    1.000000000000

     45   P      63             0.1410000    1.000000000000

 H         

     46   S      64            13.0100000    0.033498726390
     46   S      65             1.9620000    0.234800801174
     46   S      66             0.4446000    0.813682957883

     47   S      67             0.1220000    1.000000000000

     48   P      68             0.7270000    1.000000000000

     49   S      69             0.0297400    1.000000000000

     50   P      70             0.1410000    1.000000000000

 H         

     51   S      71            13.0100000    0.033498726390
     51   S      72             1.9620000    0.234800801174
     51   S      73             0.4446000    0.813682957883

     52   S      74             0.1220000    1.000000000000

     53   P      75             0.7270000    1.000000000000

     54   S      76             0.0297400    1.000000000000

     55   P      77             0.1410000    1.000000000000

 C         

     56   S      78          6665.0000000    0.000691583963
     56   S      79          1000.0000000    0.005325796153
     56   S      80           228.0000000    0.027060721042
     56   S      81            64.7100000    0.101656846141
     56   S      82            21.0600000    0.274574823617
     56   S      83             7.4950000    0.448294318924
     56   S      84             2.7970000    0.284902610715
     56   S      85             0.5215000    0.015194859206

     57   S      86          6665.0000000   -0.000293269653
     57   S      87          1000.0000000   -0.002318035474
     57   S      88           228.0000000   -0.011499786039
     57   S      89            64.7100000   -0.046826727010
     57   S      90            21.0600000   -0.128466168750
     57   S      91             7.4950000   -0.301266272463
     57   S      92             2.7970000   -0.255630702330
     57   S      93             0.5215000    1.093793361012

     58   S      94             0.1596000    1.000000000000

     59   P      95             9.4390000    0.056979251590
     59   P      96             2.0020000    0.313207211501
     59   P      97             0.5456000    0.760376741738

     60   P      98             0.1517000    1.000000000000

     61   D      99             0.5500000    1.000000000000

     62   S     100             0.0469000    1.000000000000

     63   P     101             0.0404100    1.000000000000

     64   D     102             0.1510000    1.000000000000

 C         

     65   S     103          6665.0000000    0.000691583963
     65   S     104          1000.0000000    0.005325796153
     65   S     105           228.0000000    0.027060721042
     65   S     106            64.7100000    0.101656846141
     65   S     107            21.0600000    0.274574823617
     65   S     108             7.4950000    0.448294318924
     65   S     109             2.7970000    0.284902610715
     65   S     110             0.5215000    0.015194859206

     66   S     111          6665.0000000   -0.000293269653
     66   S     112          1000.0000000   -0.002318035474
     66   S     113           228.0000000   -0.011499786039
     66   S     114            64.7100000   -0.046826727010
     66   S     115            21.0600000   -0.128466168750
     66   S     116             7.4950000   -0.301266272463
     66   S     117             2.7970000   -0.255630702330
     66   S     118             0.5215000    1.093793361012

     67   S     119             0.1596000    1.000000000000

     68   P     120             9.4390000    0.056979251590
     68   P     121             2.0020000    0.313207211501
     68   P     122             0.5456000    0.760376741738

     69   P     123             0.1517000    1.000000000000

     70   D     124             0.5500000    1.000000000000

     71   S     125             0.0469000    1.000000000000

     72   P     126             0.0404100    1.000000000000

     73   D     127             0.1510000    1.000000000000

 C         

     74   S     128          6665.0000000    0.000691583963
     74   S     129          1000.0000000    0.005325796153
     74   S     130           228.0000000    0.027060721042
     74   S     131            64.7100000    0.101656846141
     74   S     132            21.0600000    0.274574823617
     74   S     133             7.4950000    0.448294318924
     74   S     134             2.7970000    0.284902610715
     74   S     135             0.5215000    0.015194859206

     75   S     136          6665.0000000   -0.000293269653
     75   S     137          1000.0000000   -0.002318035474
     75   S     138           228.0000000   -0.011499786039
     75   S     139            64.7100000   -0.046826727010
     75   S     140            21.0600000   -0.128466168750
     75   S     141             7.4950000   -0.301266272463
     75   S     142             2.7970000   -0.255630702330
     75   S     143             0.5215000    1.093793361012

     76   S     144             0.1596000    1.000000000000

     77   P     145             9.4390000    0.056979251590
     77   P     146             2.0020000    0.313207211501
     77   P     147             0.5456000    0.760376741738

     78   P     148             0.1517000    1.000000000000

     79   D     149             0.5500000    1.000000000000

     80   S     150             0.0469000    1.000000000000

     81   P     151             0.0404100    1.000000000000

     82   D     152             0.1510000    1.000000000000

 C         

     83   S     153          6665.0000000    0.000691583963
     83   S     154          1000.0000000    0.005325796153
     83   S     155           228.0000000    0.027060721042
     83   S     156            64.7100000    0.101656846141
     83   S     157            21.0600000    0.274574823617
     83   S     158             7.4950000    0.448294318924
     83   S     159             2.7970000    0.284902610715
     83   S     160             0.5215000    0.015194859206

     84   S     161          6665.0000000   -0.000293269653
     84   S     162          1000.0000000   -0.002318035474
     84   S     163           228.0000000   -0.011499786039
     84   S     164            64.7100000   -0.046826727010
     84   S     165            21.0600000   -0.128466168750
     84   S     166             7.4950000   -0.301266272463
     84   S     167             2.7970000   -0.255630702330
     84   S     168             0.5215000    1.093793361012

     85   S     169             0.1596000    1.000000000000

     86   P     170             9.4390000    0.056979251590
     86   P     171             2.0020000    0.313207211501
     86   P     172             0.5456000    0.760376741738

     87   P     173             0.1517000    1.000000000000

     88   D     174             0.5500000    1.000000000000

     89   S     175             0.0469000    1.000000000000

     90   P     176             0.0404100    1.000000000000

     91   D     177             0.1510000    1.000000000000

 C         

     92   S     178          6665.0000000    0.000691583963
     92   S     179          1000.0000000    0.005325796153
     92   S     180           228.0000000    0.027060721042
     92   S     181            64.7100000    0.101656846141
     92   S     182            21.0600000    0.274574823617
     92   S     183             7.4950000    0.448294318924
     92   S     184             2.7970000    0.284902610715
     92   S     185             0.5215000    0.015194859206

     93   S     186          6665.0000000   -0.000293269653
     93   S     187          1000.0000000   -0.002318035474
     93   S     188           228.0000000   -0.011499786039
     93   S     189            64.7100000   -0.046826727010
     93   S     190            21.0600000   -0.128466168750
     93   S     191             7.4950000   -0.301266272463
     93   S     192             2.7970000   -0.255630702330
     93   S     193             0.5215000    1.093793361012

     94   S     194             0.1596000    1.000000000000

     95   P     195             9.4390000    0.056979251590
     95   P     196             2.0020000    0.313207211501
     95   P     197             0.5456000    0.760376741738

     96   P     198             0.1517000    1.000000000000

     97   D     199             0.5500000    1.000000000000

     98   S     200             0.0469000    1.000000000000

     99   P     201             0.0404100    1.000000000000

    100   D     202             0.1510000    1.000000000000

 C         

    101   S     203          6665.0000000    0.000691583963
    101   S     204          1000.0000000    0.005325796153
    101   S     205           228.0000000    0.027060721042
    101   S     206            64.7100000    0.101656846141
    101   S     207            21.0600000    0.274574823617
    101   S     208             7.4950000    0.448294318924
    101   S     209             2.7970000    0.284902610715
    101   S     210             0.5215000    0.015194859206

    102   S     211          6665.0000000   -0.000293269653
    102   S     212          1000.0000000   -0.002318035474
    102   S     213           228.0000000   -0.011499786039
    102   S     214            64.7100000   -0.046826727010
    102   S     215            21.0600000   -0.128466168750
    102   S     216             7.4950000   -0.301266272463
    102   S     217             2.7970000   -0.255630702330
    102   S     218             0.5215000    1.093793361012

    103   S     219             0.1596000    1.000000000000

    104   P     220             9.4390000    0.056979251590
    104   P     221             2.0020000    0.313207211501
    104   P     222             0.5456000    0.760376741738

    105   P     223             0.1517000    1.000000000000

    106   D     224             0.5500000    1.000000000000

    107   S     225             0.0469000    1.000000000000

    108   P     226             0.0404100    1.000000000000

    109   D     227             0.1510000    1.000000000000

 C         

    110   S     228          6665.0000000    0.000691583963
    110   S     229          1000.0000000    0.005325796153
    110   S     230           228.0000000    0.027060721042
    110   S     231            64.7100000    0.101656846141
    110   S     232            21.0600000    0.274574823617
    110   S     233             7.4950000    0.448294318924
    110   S     234             2.7970000    0.284902610715
    110   S     235             0.5215000    0.015194859206

    111   S     236          6665.0000000   -0.000293269653
    111   S     237          1000.0000000   -0.002318035474
    111   S     238           228.0000000   -0.011499786039
    111   S     239            64.7100000   -0.046826727010
    111   S     240            21.0600000   -0.128466168750
    111   S     241             7.4950000   -0.301266272463
    111   S     242             2.7970000   -0.255630702330
    111   S     243             0.5215000    1.093793361012

    112   S     244             0.1596000    1.000000000000

    113   P     245             9.4390000    0.056979251590
    113   P     246             2.0020000    0.313207211501
    113   P     247             0.5456000    0.760376741738

    114   P     248             0.1517000    1.000000000000

    115   D     249             0.5500000    1.000000000000

    116   S     250             0.0469000    1.000000000000

    117   P     251             0.0404100    1.000000000000

    118   D     252             0.1510000    1.000000000000

 N         

    119   S     253          9046.0000000    0.000699617413
    119   S     254          1357.0000000    0.005386054630
    119   S     255           309.3000000    0.027391021189
    119   S     256            87.7300000    0.103150591982
    119   S     257            28.5600000    0.278570663317
    119   S     258            10.2100000    0.448294849454
    119   S     259             3.8380000    0.278085928395
    119   S     260             0.7466000    0.015431561233

    120   S     261          9046.0000000   -0.000304990096
    120   S     262          1357.0000000   -0.002408026379
    120   S     263           309.3000000   -0.011944448725
    120   S     264            87.7300000   -0.048925992909
    120   S     265            28.5600000   -0.134472724725
    120   S     266            10.2100000   -0.315112577700
    120   S     267             3.8380000   -0.242857832550
    120   S     268             0.7466000    1.094382206854

    121   S     269             0.2248000    1.000000000000

    122   P     270            13.5500000    0.058905676772
    122   P     271             2.9170000    0.320461106714
    122   P     272             0.7973000    0.753042061792

    123   P     273             0.2185000    1.000000000000

    124   D     274             0.8170000    1.000000000000

    125   S     275             0.0612400    1.000000000000

    126   P     276             0.0561100    1.000000000000

    127   D     277             0.2300000    1.000000000000

 N         

    128   S     278          9046.0000000    0.000699617413
    128   S     279          1357.0000000    0.005386054630
    128   S     280           309.3000000    0.027391021189
    128   S     281            87.7300000    0.103150591982
    128   S     282            28.5600000    0.278570663317
    128   S     283            10.2100000    0.448294849454
    128   S     284             3.8380000    0.278085928395
    128   S     285             0.7466000    0.015431561233

    129   S     286          9046.0000000   -0.000304990096
    129   S     287          1357.0000000   -0.002408026379
    129   S     288           309.3000000   -0.011944448725
    129   S     289            87.7300000   -0.048925992909
    129   S     290            28.5600000   -0.134472724725
    129   S     291            10.2100000   -0.315112577700
    129   S     292             3.8380000   -0.242857832550
    129   S     293             0.7466000    1.094382206854

    130   S     294             0.2248000    1.000000000000

    131   P     295            13.5500000    0.058905676772
    131   P     296             2.9170000    0.320461106714
    131   P     297             0.7973000    0.753042061792

    132   P     298             0.2185000    1.000000000000

    133   D     299             0.8170000    1.000000000000

    134   S     300             0.0612400    1.000000000000

    135   P     301             0.0561100    1.000000000000

    136   D     302             0.2300000    1.000000000000

 TOTAL NUMBER OF BASIS SET SHELLS             =  136
 NUMBER OF CARTESIAN GAUSSIAN BASIS FUNCTIONS =  324
 NOTE: THIS RUN WILL RESTRICT THE MO VARIATION SPACE TO SPHERICAL HARMONICS.
 THE NUMBER OF ORBITALS KEPT IN THE VARIATIONAL SPACE WILL BE PRINTED LATER.
 NUMBER OF ELECTRONS                          =   66
 CHARGE OF MOLECULE                           =    1
 SPIN MULTIPLICITY                            =    1
 NUMBER OF OCCUPIED ORBITALS (ALPHA)          =   33
 NUMBER OF OCCUPIED ORBITALS (BETA )          =   33
 TOTAL NUMBER OF ATOMS                        =   20
 THE NUCLEAR REPULSION ENERGY IS      378.1181902989

     $CONTRL OPTIONS
     ---------------
 SCFTYP=RHF          RUNTYP=ENERGY       EXETYP=RUN     
 MPLEVL=       0     CITYP =NONE         CCTYP =NONE         VBTYP =NONE    
 MULT  =       1     ICHARG=       1     NZVAR =       0     COORD =UNIQUE  
 PP    =NONE         RELWFN=NONE         LOCAL =NONE         NUMGRD=       F
 ISPHER=       1     NOSYM =       0     MAXIT =     100     UNITS =ANGS    
 PLTORB=       F     MOLPLT=       F     AIMPAC=       F     FRIEND=        
 NPRINT=       7     IREST =       0     GEOM  =INPUT   
 NORMF =       0     NORMP =       0     ITOL  =      20     ICUT  =       9
 INTTYP=BEST         GRDTYP=BEST         QMTTOL= 1.0E-06

     $SYSTEM OPTIONS
     ---------------
  REPLICATED MEMORY=     1000000 WORDS (ON EVERY NODE).
 DISTRIBUTED MEMDDI=           0 MILLION WORDS IN AGGREGATE,
 MEMDDI DISTRIBUTED OVER   8 PROCESSORS IS           0 WORDS/PROCESSOR.
 TOTAL MEMORY REQUESTED ON EACH PROCESSOR=     1000000 WORDS.
 TIMLIM=      525600.00 MINUTES, OR   365.00 DAYS.
 PARALL= T  BALTYP=  NXTVAL  KDIAG=    0  COREFL= F

          ----------------
          PROPERTIES INPUT
          ----------------

     MOMENTS            FIELD           POTENTIAL          DENSITY
 IEMOM =       1   IEFLD =       0   IEPOT =       0   IEDEN =       0
 WHERE =COMASS     WHERE =NUCLEI     WHERE =NUCLEI     WHERE =NUCLEI  
 OUTPUT=BOTH       OUTPUT=BOTH       OUTPUT=BOTH       OUTPUT=BOTH    
 IEMINT=       0   IEFINT=       0                     IEDINT=       0
                                                       MORB  =       0
          EXTRAPOLATION IN EFFECT
          DIIS IN EFFECT
 ORBITAL PRINTING OPTION: NPREO=   1 324   2   1

     -------------------------------
     INTEGRAL TRANSFORMATION OPTIONS
     -------------------------------
     NWORD  =       0     CUTOFF = 1.0E-09
     MPTRAN =       0     DIRTRF =       T
     AOINTS =DUP     

          ----------------------
          INTEGRAL INPUT OPTIONS
          ----------------------
 NOPK  =       1 NORDER=       0 SCHWRZ=       T

     ------------------------------------------
     THE POINT GROUP IS C1 , NAXIS= 0, ORDER= 1
     ------------------------------------------

 -- VARIATIONAL SPACE WILL BE RESTRICTED TO PURE SPHERICAL HARMONICS ONLY --
 AFTER EXCLUDING CONTAMINANT COMBINATIONS FROM THE CARTESIAN GAUSSIAN BASIS
 SET, THE NUMBER OF SPHERICAL HARMONICS KEPT IN THE VARIATION SPACE IS  306

     DIMENSIONS OF THE SYMMETRY SUBSPACES ARE
 A   =  306

 ..... DONE SETTING UP THE RUN .....
 ON NODE 0, STEP CPU TIME =     0.03 TOTAL CPU TIME =        0.0 (    0.0 MIN)
 TOTAL WALL CLOCK TIME=        0.0 SECONDS, CPU UTILIZATION IS 100.00%

          ********************
          1 ELECTRON INTEGRALS
          ********************
 ...... END OF ONE-ELECTRON INTEGRALS ......
 ON NODE 0, STEP CPU TIME =     0.01 TOTAL CPU TIME =        0.0 (    0.0 MIN)
 TOTAL WALL CLOCK TIME=        0.0 SECONDS, CPU UTILIZATION IS 100.00%

          -------------
          GUESS OPTIONS
          -------------
          GUESS =HUCKEL            NORB  =       0          NORDER=       0
          MIX   =       F          PRTMO =       F          PUNMO =       F
          TOLZ  = 1.0E-08          TOLE  = 1.0E-05
          SYMDEN=       F          PURIFY=       F

 INITIAL GUESS ORBITALS GENERATED BY HUCKEL   ROUTINE.
 HUCKEL GUESS REQUIRES    779912 WORDS.

 STATISTICS FOR GENERATION OF SYMMETRY ORBITAL -Q- MATRIX
 NUMBER OF CARTESIAN ATOMIC ORBITALS=        324
 NUMBER OF SPHERICAL CONTAMINANTS DROPPED=    18
 NUMBER OF LINEARLY DEPENDENT MOS DROPPED=     0
 TOTAL NUMBER OF MOS IN VARIATION SPACE=     306

                    * * * * * WARNING * * * * *
 POSSIBLE LINEAR DEPENDENCE PROBLEMS DETECTED, INPUT QMTTOL= 1.0E-06,
 WITH     4 OVERLAP EIGENVALUES LYING BETWEEN 1.0E-05 AND QMTTOL.
 IF YOU EXPERIENCE SCF CONVERGENCE DIFFICULTIES WITH THE DENSITY ALMOST BUT
 NOT QUITE CONVERGED, YOU MAY NEED TO LOOSEN -QMTTOL- BY A FACTOR 5 TO 10.

 SYMMETRIES FOR INITIAL GUESS ORBITALS FOLLOW.   BOTH SET(S).
    33 ORBITALS ARE OCCUPIED (    9 CORE ORBITALS).
    10=A       11=A       12=A       13=A       14=A       15=A       16=A   
    17=A       18=A       19=A       20=A       21=A       22=A       23=A   
    24=A       25=A       26=A       27=A       28=A       29=A       30=A   
    31=A       32=A       33=A       34=A       35=A       36=A       37=A   
    38=A       39=A       40=A       41=A       42=A       43=A   
 ...... END OF INITIAL ORBITAL SELECTION ......
 ON NODE 0, STEP CPU TIME =     0.25 TOTAL CPU TIME =        0.3 (    0.0 MIN)
 TOTAL WALL CLOCK TIME=        0.0 SECONDS, CPU UTILIZATION IS 100.00%

                    ----------------------
                    AO INTEGRAL TECHNOLOGY
                    ----------------------
     S,P,L SHELL ROTATED AXIS INTEGRALS, REPROGRAMMED BY
        KAZUYA ISHIMURA (IMS) AND JOSE SIERRA (SYNSTAR).
     S,P,D,L SHELL ROTATED AXIS INTEGRALS PROGRAMMED BY
        KAZUYA ISHIMURA (INSTITUTE FOR MOLECULAR SCIENCE).
     S,P,D,F,G SHELL TO TOTAL QUARTET ANGULAR MOMENTUM SUM 5,
        ERIC PROGRAM BY GRAHAM FLETCHER (ELORET AND NASA ADVANCED
        SUPERCOMPUTING DIVISION, AMES RESEARCH CENTER).
     S,P,D,F,G,L SHELL GENERAL RYS QUADRATURE PROGRAMMED BY
        MICHEL DUPUIS (PACIFIC NORTHWEST NATIONAL LABORATORY).

          --------------------
          2 ELECTRON INTEGRALS
          --------------------

 DIRECT SCF METHOD SKIPS INTEGRAL STORAGE ON DISK.
 DIRECT TRANSFORMATION SKIPS AO INTEGRAL STORAGE ON DISK.
  ...... END OF TWO-ELECTRON INTEGRALS .....
 ON NODE 0, STEP CPU TIME =     0.00 TOTAL CPU TIME =        0.3 (    0.0 MIN)
 TOTAL WALL CLOCK TIME=        0.0 SECONDS, CPU UTILIZATION IS 100.00%

          --------------------------
                 RHF SCF CALCULATION
          --------------------------

     NUCLEAR ENERGY =       378.1181902989
     MAXIT =  100     NPUNCH=    2
     EXTRAP=T  DAMP=F  SHIFT=F  RSTRCT=F  DIIS=T  DEM=F  SOSCF=F
     DENSITY MATRIX CONV=  2.00E-05
     MEMORY REQUIRED FOR RHF STEP=    808786 WORDS.

 DIRECT SCF CALCULATION, SCHWRZ=T   FDIFF=T,  DIRTHR=  0.00E+00 NITDIR=10
 SCHWARZ INEQUALITY OVERHEAD:     49039 INTEGRALS, T=        0.00

                                                                                   NONZERO     BLOCKS
 ITER EX DEM     TOTAL ENERGY        E CHANGE  DENSITY CHANGE    DIIS ERROR      INTEGRALS    SKIPPED
          * * *   INITIATING DIIS PROCEDURE   * * *
   1  0  0     -379.0650124165  -379.0650124165   3.490487077   0.373179526      470589077   12183200
   2  1  0     -380.0992537240    -1.0342413075   0.494043564   0.122325368      470818328   12300790
   3  2  0     -380.1766444798    -0.0773907558   0.279408878   0.041152776      466470589   13513692
   4  3  0     -380.2041002406    -0.0274557608   0.206792336   0.009785347      461885207   14244580
   5  4  0     -380.2055566412    -0.0014564006   0.034209941   0.005139658      457802135   14802978
   6  5  0     -380.2057997602    -0.0002431190   0.011219000   0.001554612      449325073   15723741
   7  6  0     -380.2058235745    -0.0000238144   0.006462976   0.000510700      436971842   16824426
   8  7  0     -380.2058301981    -0.0000066236   0.001520129   0.000121939      430423177   17338924
   9  8  0     -380.2058306431    -0.0000004450   0.000422199   0.000023807      414963653   18453065
  10  9  0     -380.2058306643    -0.0000000212   0.000095990   0.000006452      391434482   20034164
  11 10  0     -380.2058306624     0.0000000019   0.000037404   0.000001233      370704286   21499541
  12 11  0     -380.2058306561     0.0000000064   0.000275592   0.000000441      359997831   22139405
  13 12  0     -380.2058306589    -0.0000000028   0.000026951   0.000000311      374639022   21102765
  14 13  0     -380.2058306510     0.0000000079   0.000090371   0.000000311      354068528   22531121
  15 14  0     -380.2058306528    -0.0000000018   0.000004280   0.000000375      353160533   22603644
  16 15  0     -380.2058306431     0.0000000097   0.000025908   0.000000666      280366591   27370698

          --------------
          DIIS CONVERGED
          --------------
     TIME TO FORM FOCK OPERATORS=     113.4 SECONDS (       7.1 SEC/ITER)
     FOCK TIME ON FIRST ITERATION=       8.5, LAST ITERATION=       4.5
     TIME TO SOLVE SCF EQUATIONS=       0.9 SECONDS (       0.1 SEC/ITER)

 FINAL RHF ENERGY IS     -380.2058306431 AFTER  16 ITERATIONS

          ------------
          EIGENVECTORS
          ------------

                      1          2          3          4          5
                  -15.7477   -15.7477   -11.4651   -11.4651   -11.4193
                     A          A          A          A          A   
    1  H  1  S    0.000000   0.000012   0.000000   0.000033  -0.000029
    2  H  1  S    0.000003   0.002801  -0.000002  -0.001544   0.003477
    3  H  1  X    0.000000   0.000000   0.000000   0.000000   0.000000
    4  H  1  Y    0.000014   0.000000   0.000045   0.000000   0.000000
    5  H  1  Z    0.000000   0.000015   0.000000  -0.000037  -0.000126
    6  H  1  S    0.000000   0.000092   0.000003   0.002531   0.000197
    7  H  1  X    0.000000   0.000000   0.000000   0.000000   0.000000
    8  H  1  Y   -0.000463   0.000001   0.002295  -0.000003   0.000000
    9  H  1  Z   -0.000001  -0.000737   0.000000   0.000277  -0.001580
   10  H  2  S    0.000016  -0.000011  -0.000020   0.000000   0.000158
   11  H  2  S    0.000931  -0.002654   0.000858   0.001898   0.000110
   12  H  2  X    0.000000   0.000000   0.000000   0.000000   0.000000
   13  H  2  Y   -0.000058   0.000025  -0.000007  -0.000033   0.000076
   14  H  2  Z    0.000024  -0.000018   0.000016   0.000025  -0.000076
   15  H  2  S   -0.002476   0.000909   0.001226   0.001207  -0.002983
   16  H  2  X    0.000000   0.000000   0.000000   0.000000   0.000000
   17  H  2  Y    0.000415  -0.000052   0.003113   0.000696  -0.000289
   18  H  2  Z    0.000079  -0.000606   0.000169   0.000537   0.000547
   19  H  3  S   -0.000016  -0.000011   0.000020   0.000000   0.000158
   20  H  3  S   -0.000937  -0.002652  -0.000854   0.001900   0.000111
   21  H  3  X    0.000000   0.000000   0.000000   0.000000   0.000000
   22  H  3  Y   -0.000058  -0.000025  -0.000007   0.000033  -0.000076
   23  H  3  Z   -0.000024  -0.000018  -0.000016   0.000025  -0.000076
   24  H  3  S    0.002478   0.000903  -0.001223   0.001210  -0.002981
   25  H  3  X    0.000000   0.000000   0.000000   0.000000   0.000000
   26  H  3  Y    0.000415   0.000051   0.003111  -0.000703   0.000289
   27  H  3  Z   -0.000081  -0.000606  -0.000167   0.000537   0.000547
   28  H  4  S    0.000067  -0.000060   0.000076   0.000104  -0.000001
   29  H  4  S    0.003160  -0.001275   0.001969   0.002875  -0.001240
   30  H  4  X    0.000000   0.000000   0.000000   0.000000   0.000000
   31  H  4  Y    0.000005   0.000001   0.000051   0.000022   0.000002
   32  H  4  Z    0.000005   0.000004  -0.000099  -0.000105  -0.000103
   33  H  4  S    0.000140  -0.000938   0.000389  -0.000056   0.002306
   34  H  4  X    0.000000   0.000000   0.000000   0.000000   0.000000
   35  H  4  Y   -0.000400   0.000353   0.002003   0.001017  -0.000422
   36  H  4  Z   -0.000745   0.000291  -0.000844  -0.001029  -0.000044
   37  H  5  S   -0.000067  -0.000060  -0.000076   0.000104  -0.000001
   38  H  5  S   -0.003163  -0.001267  -0.001963   0.002880  -0.001239
   39  H  5  X    0.000000   0.000000   0.000000   0.000000   0.000000
   40  H  5  Y    0.000005  -0.000001   0.000051  -0.000022  -0.000002
   41  H  5  Z   -0.000005   0.000004   0.000099  -0.000105  -0.000103
   42  H  5  S   -0.000142  -0.000937  -0.000389  -0.000056   0.002306
   43  H  5  X    0.000000   0.000000   0.000000   0.000000   0.000000
   44  H  5  Y   -0.000401  -0.000352   0.002000  -0.001021   0.000422
   45  H  5  Z    0.000745   0.000290   0.000841  -0.001031  -0.000044
   46  H  6  S    0.000189  -0.000190   0.000279   0.000284  -0.000047
   47  H  6  S   -0.002712   0.002341   0.001847   0.003165   0.005945
   48  H  6  X    0.000000   0.000000   0.000000   0.000000   0.000000
   49  H  6  Y    0.000026  -0.000026  -0.000004  -0.000020   0.000095
   50  H  6  Z    0.000104  -0.000094  -0.000063  -0.000084  -0.000056
   51  H  6  S   -0.000032  -0.000562  -0.002133  -0.000651   0.001752
   52  H  6  X    0.000000   0.000000   0.000000   0.000000   0.000000
   53  H  6  Y   -0.000202   0.000257   0.001731   0.001362  -0.000172
   54  H  6  Z   -0.000868   0.000818   0.000755   0.001053   0.001827
   55  H  7  S   -0.000189  -0.000190  -0.000279   0.000285  -0.000047
   56  H  7  S    0.002718   0.002334  -0.001840   0.003169   0.005944
   57  H  7  X    0.000000   0.000000   0.000000   0.000000   0.000000
   58  H  7  Y    0.000026   0.000026  -0.000004   0.000020  -0.000095
   59  H  7  Z   -0.000104  -0.000094   0.000063  -0.000084  -0.000056
   60  H  7  S    0.000031  -0.000562   0.002131  -0.000656   0.001752
   61  H  7  X    0.000000   0.000000   0.000000   0.000000   0.000000
   62  H  7  Y   -0.000202  -0.000257   0.001728  -0.001366   0.000172
   63  H  7  Z    0.000870   0.000816  -0.000753   0.001055   0.001827
   64  H  8  S   -0.000166   0.000144  -0.000137  -0.000134  -0.000009
   65  H  8  S   -0.002557   0.002007  -0.000911  -0.000874  -0.001828
   66  H  8  X    0.000000   0.000000   0.000000   0.000000   0.000000
   67  H  8  Y   -0.000012   0.000015   0.000005   0.000002  -0.000040
   68  H  8  Z   -0.000193   0.000205  -0.000150  -0.000175  -0.000033
   69  H  8  S    0.000654  -0.000453  -0.000739  -0.000649  -0.000152
   70  H  8  X    0.000000   0.000000   0.000000   0.000000   0.000000
   71  H  8  Y    0.000169  -0.000113   0.000432   0.000395   0.000258
   72  H  8  Z    0.000711  -0.000628   0.000140   0.000226   0.000592
   73  H  9  S    0.000166   0.000143   0.000137  -0.000134  -0.000009
   74  H  9  S    0.002562   0.002001   0.000909  -0.000876  -0.001828
   75  H  9  X    0.000000   0.000000   0.000000   0.000000   0.000000
   76  H  9  Y   -0.000012  -0.000015   0.000005  -0.000002   0.000040
   77  H  9  Z    0.000193   0.000204   0.000150  -0.000175  -0.000033
   78  H  9  S   -0.000655  -0.000452   0.000738  -0.000650  -0.000152
   79  H  9  X    0.000000   0.000000   0.000000   0.000000   0.000000
   80  H  9  Y    0.000169   0.000112   0.000431  -0.000396  -0.000258
   81  H  9  Z   -0.000712  -0.000626  -0.000140   0.000226   0.000592
   82  H 10  S   -0.000113   0.000095  -0.000159  -0.000170   0.000001
   83  H 10  S   -0.003030   0.002700   0.000057   0.000504   0.000210
   84  H 10  X    0.000000   0.000000   0.000000   0.000000   0.000000
   85  H 10  Y   -0.000146   0.000163  -0.000138  -0.000143   0.000010
   86  H 10  Z    0.000156  -0.000157   0.000095   0.000101   0.000026
   87  H 10  S    0.000626  -0.000344  -0.000549  -0.000754   0.000028
   88  H 10  X    0.000000   0.000000   0.000000   0.000000   0.000000
   89  H 10  Y    0.000676  -0.000690   0.000026  -0.000119   0.000002
   90  H 10  Z   -0.000591   0.000532  -0.000007   0.000058   0.000062
   91  H 11  S    0.000113   0.000095   0.000158  -0.000170   0.000001
   92  H 11  S    0.003037   0.002693  -0.000056   0.000504   0.000210
   93  H 11  X    0.000000   0.000000   0.000000   0.000000   0.000000
   94  H 11  Y   -0.000147  -0.000163  -0.000138   0.000143  -0.000010
   95  H 11  Z   -0.000156  -0.000157  -0.000095   0.000101   0.000026
   96  H 11  S   -0.000627  -0.000342   0.000548  -0.000755   0.000028
   97  H 11  X    0.000000   0.000000   0.000000   0.000000   0.000000
   98  H 11  Y    0.000678   0.000689   0.000027   0.000119  -0.000002
   99  H 11  Z    0.000592   0.000530   0.000007   0.000058   0.000062
  100  C 12  S    0.000000  -0.000013   0.000000  -0.000205   0.013441
  101  C 12  S    0.000000  -0.000018   0.000000  -0.000340  -0.000114
  102  C 12  S    0.000003   0.002384   0.000020   0.017375   0.013090
  103  C 12  X    0.000000   0.000000   0.000000   0.000000   0.000000
  104  C 12  Y   -0.000024   0.000000  -0.000117   0.000000   0.000000
  105  C 12  Z    0.000000  -0.000017   0.000000   0.000075  -0.000065
  106  C 12  X    0.000000   0.000000   0.000000   0.000000   0.000000
  107  C 12  Y   -0.001568   0.000002   0.059094  -0.000069   0.000005
  108  C 12  Z   -0.000003  -0.002336  -0.000009  -0.007708  -0.010522
  109  C 12 XX    0.000000  -0.000018   0.000000   0.000036   0.000220
  110  C 12 YY    0.000000   0.000002   0.000000  -0.000006  -0.000033
  111  C 12 ZZ    0.000000   0.000016   0.000000  -0.000030  -0.000187
  112  C 12 XY    0.000000   0.000000   0.000000   0.000000   0.000000
  113  C 12 XZ    0.000000   0.000000   0.000000   0.000000   0.000000
  114  C 12 YZ    0.000034   0.000000  -0.000042   0.000000   0.000000
  115  C 12  S   -0.000014  -0.011023   0.000017   0.014114   0.030001
  116  C 12  X    0.000000   0.000000   0.000000   0.000000   0.000000
  117  C 12  Y    0.007576  -0.000009   0.013623  -0.000016   0.000003
  118  C 12  Z    0.000002   0.001998  -0.000002  -0.001673  -0.004976
  119  C 12 XX    0.000000  -0.000119   0.000000   0.000169  -0.001083
  120  C 12 YY    0.000000   0.000364  -0.000003  -0.002693  -0.001303
  121  C 12 ZZ    0.000000  -0.000246   0.000003   0.002524   0.002386
  122  C 12 XY    0.000000   0.000000   0.000000   0.000000   0.000000
  123  C 12 XZ    0.000000   0.000000   0.000000   0.000000   0.000000
  124  C 12 YZ    0.000590  -0.000001  -0.016250   0.000019  -0.000001
  125  C 13  S   -0.000007   0.000053  -0.000009  -0.000258   0.709858
  126  C 13  S   -0.000012   0.000091  -0.000113  -0.000473   0.005262
  127  C 13  S   -0.002803   0.002021  -0.006600   0.017786  -0.032057
  128  C 13  X    0.000000   0.000000   0.000000   0.000000   0.000000
  129  C 13  Y   -0.000017   0.000021  -0.000043  -0.000023   0.000144
  130  C 13  Z    0.000003   0.000002   0.000006  -0.000028  -0.000074
  131  C 13  X    0.000000   0.000000   0.000000   0.000000   0.000000
  132  C 13  Y   -0.002497   0.000809   0.055960   0.017247  -0.008110
  133  C 13  Z   -0.001785   0.000630  -0.003867   0.008443  -0.002086
  134  C 13 XX   -0.000016   0.000018  -0.000056  -0.000082  -0.000578
  135  C 13 YY    0.000054  -0.000060   0.000113   0.000142   0.000476
  136  C 13 ZZ   -0.000039   0.000041  -0.000057  -0.000059   0.000102
  137  C 13 XY    0.000000   0.000000   0.000000   0.000000   0.000000
  138  C 13 XZ    0.000000   0.000000   0.000000   0.000000   0.000000
  139  C 13 YZ   -0.000043   0.000037   0.000026  -0.000029  -0.000020
  140  C 13  S   -0.003585   0.009680  -0.004374   0.004368  -0.043417
  141  C 13  X    0.000000   0.000000   0.000000   0.000000   0.000000
  142  C 13  Y    0.003398  -0.001189   0.004192   0.006115  -0.003565
  143  C 13  Z    0.001772   0.000989  -0.000035   0.000083  -0.006346
  144  C 13 XX    0.000121   0.000141  -0.000210  -0.000179   0.003136
  145  C 13 YY    0.000576  -0.001090   0.001752  -0.001248  -0.007275
  146  C 13 ZZ   -0.000697   0.000949  -0.001542   0.001427   0.004139
  147  C 13 XY    0.000000   0.000000   0.000000   0.000000   0.000000
  148  C 13 XZ    0.000000   0.000000   0.000000   0.000000   0.000000
  149  C 13 YZ   -0.001416   0.000995   0.015807   0.004255  -0.000593
  150  C 14  S    0.000007   0.000053   0.000009  -0.000258   0.709679
  151  C 14  S    0.000012   0.000091   0.000112  -0.000473   0.005260
  152  C 14  S    0.002808   0.002014   0.006641   0.017771  -0.032045
  153  C 14  X    0.000000   0.000000   0.000000   0.000000   0.000000
  154  C 14  Y   -0.000017  -0.000021  -0.000043   0.000023  -0.000144
  155  C 14  Z   -0.000003   0.000002  -0.000006  -0.000028  -0.000074
  156  C 14  X    0.000000   0.000000   0.000000   0.000000   0.000000
  157  C 14  Y   -0.002498  -0.000802   0.055919  -0.017377   0.008116
  158  C 14  Z    0.001787   0.000626   0.003887   0.008434  -0.002083
  159  C 14 XX    0.000016   0.000018   0.000056  -0.000083  -0.000578
  160  C 14 YY   -0.000054  -0.000060  -0.000112   0.000142   0.000476
  161  C 14 ZZ    0.000039   0.000041   0.000057  -0.000060   0.000102
  162  C 14 XY    0.000000   0.000000   0.000000   0.000000   0.000000
  163  C 14 XZ    0.000000   0.000000   0.000000   0.000000   0.000000
  164  C 14 YZ   -0.000043  -0.000037   0.000027   0.000029   0.000020
  165  C 14  S    0.003608   0.009671   0.004383   0.004358  -0.043401
  166  C 14  X    0.000000   0.000000   0.000000   0.000000   0.000000
  167  C 14  Y    0.003401   0.001181   0.004177  -0.006126   0.003566
  168  C 14  Z   -0.001769   0.000993   0.000036   0.000083  -0.006342
  169  C 14 XX   -0.000120   0.000141   0.000210  -0.000180   0.003135
  170  C 14 YY   -0.000579  -0.001089  -0.001755  -0.001243  -0.007273
  171  C 14 ZZ    0.000699   0.000948   0.001545   0.001423   0.004138
  172  C 14 XY    0.000000   0.000000   0.000000   0.000000   0.000000
  173  C 14 XZ    0.000000   0.000000   0.000000   0.000000   0.000000
  174  C 14 YZ   -0.001418  -0.000991   0.015797  -0.004292   0.000595
  175  C 15  S    0.000001  -0.000031   0.004365   0.004215   0.006916
  176  C 15  S    0.000015  -0.000061   0.000198  -0.000036  -0.000123
  177  C 15  S   -0.003141   0.006026  -0.011378   0.008006   0.010157
  178  C 15  X    0.000000   0.000000   0.000000   0.000000   0.000000
  179  C 15  Y    0.000068  -0.000078   0.000084   0.000091  -0.000055
  180  C 15  Z   -0.000019   0.000019  -0.000053  -0.000034   0.000005
  181  C 15  X    0.000000   0.000000   0.000000   0.000000   0.000000
  182  C 15  Y   -0.004288   0.003447   0.049051   0.029998  -0.016839
  183  C 15  Z    0.001267  -0.003076  -0.001576  -0.008154  -0.005524
  184  C 15 XX   -0.000008  -0.000025   0.000115   0.000107   0.000141
  185  C 15 YY    0.000065  -0.000041   0.000021   0.000043  -0.000025
  186  C 15 ZZ   -0.000057   0.000066  -0.000136  -0.000149  -0.000116
  187  C 15 XY    0.000000   0.000000   0.000000   0.000000   0.000000
  188  C 15 XZ    0.000000   0.000000   0.000000   0.000000   0.000000
  189  C 15 YZ   -0.000006   0.000000  -0.000118  -0.000092  -0.000058
  190  C 15  S   -0.001477  -0.004155   0.006149   0.002808   0.020745
  191  C 15  X    0.000000   0.000000   0.000000   0.000000   0.000000
  192  C 15  Y    0.006377   0.001769   0.010928   0.005090  -0.008619
  193  C 15  Z   -0.001840   0.000791  -0.003419  -0.001466  -0.002357
  194  C 15 XX   -0.000458   0.000428  -0.000442  -0.000185  -0.000228
  195  C 15 YY    0.002310  -0.002150  -0.000656  -0.001852  -0.001981
  196  C 15 ZZ   -0.001852   0.001723   0.001098   0.002037   0.002209
  197  C 15 XY    0.000000   0.000000   0.000000   0.000000   0.000000
  198  C 15 XZ    0.000000   0.000000   0.000000   0.000000   0.000000
  199  C 15 YZ    0.000928  -0.000860  -0.013401  -0.007591   0.005087
  200  C 16  S   -0.000001  -0.000031  -0.004355   0.004225   0.006914
  201  C 16  S   -0.000015  -0.000061  -0.000198  -0.000036  -0.000123
  202  C 16  S    0.003155   0.006019   0.011396   0.007980   0.010157
  203  C 16  X    0.000000   0.000000   0.000000   0.000000   0.000000
  204  C 16  Y    0.000068   0.000078   0.000084  -0.000091   0.000055
  205  C 16  Z    0.000019   0.000019   0.000053  -0.000034   0.000005
  206  C 16  X    0.000000   0.000000   0.000000   0.000000   0.000000
  207  C 16  Y   -0.004296  -0.003436   0.048981  -0.030113   0.016840
  208  C 16  Z   -0.001274  -0.003073   0.001556  -0.008157  -0.005524
  209  C 16 XX    0.000008  -0.000025  -0.000115   0.000107   0.000141
  210  C 16 YY   -0.000065  -0.000041  -0.000021   0.000043  -0.000025
  211  C 16 ZZ    0.000058   0.000066   0.000135  -0.000150  -0.000116
  212  C 16 XY    0.000000   0.000000   0.000000   0.000000   0.000000
  213  C 16 XZ    0.000000   0.000000   0.000000   0.000000   0.000000
  214  C 16 YZ   -0.000006   0.000000  -0.000117   0.000092   0.000058
  215  C 16  S    0.001467  -0.004158  -0.006142   0.002821   0.020736
  216  C 16  X    0.000000   0.000000   0.000000   0.000000   0.000000
  217  C 16  Y    0.006372  -0.001785   0.010916  -0.005115   0.008619
  218  C 16  Z    0.001842   0.000787   0.003416  -0.001474  -0.002356
  219  C 16 XX    0.000459   0.000427   0.000442  -0.000186  -0.000228
  220  C 16 YY   -0.002315  -0.002145   0.000652  -0.001853  -0.001981
  221  C 16 ZZ    0.001856   0.001718  -0.001094   0.002039   0.002209
  222  C 16 XY    0.000000   0.000000   0.000000   0.000000   0.000000
  223  C 16 XZ    0.000000   0.000000   0.000000   0.000000   0.000000
  224  C 16 YZ    0.000930   0.000857  -0.013383   0.007622  -0.005088
  225  C 17  S   -0.000173   0.000211   0.710842   0.709060  -0.000385
  226  C 17  S   -0.000238   0.000300   0.005508   0.005303  -0.000547
  227  C 17  S   -0.003385   0.002435  -0.047484  -0.035994   0.011280
  228  C 17  X    0.000000   0.000000   0.000000   0.000000   0.000000
  229  C 17  Y   -0.000232   0.000235   0.000804   0.000812   0.000101
  230  C 17  Z   -0.000066   0.000063   0.000181   0.000174  -0.000027
  231  C 17  X    0.000000   0.000000   0.000000   0.000000   0.000000
  232  C 17  Y   -0.010516   0.010873   0.022420   0.019421  -0.003062
  233  C 17  Z   -0.003525   0.003126  -0.012979  -0.007422   0.009008
  234  C 17 XX   -0.000011   0.000021  -0.000527  -0.000555  -0.000132
  235  C 17 YY    0.000167  -0.000176   0.000490   0.000489   0.000101
  236  C 17 ZZ   -0.000156   0.000155   0.000037   0.000067   0.000031
  237  C 17 XY    0.000000   0.000000   0.000000   0.000000   0.000000
  238  C 17 XZ    0.000000   0.000000   0.000000   0.000000   0.000000
  239  C 17 YZ    0.000106  -0.000092   0.000104   0.000111   0.000036
  240  C 17  S   -0.020420   0.009821  -0.021540  -0.013671   0.004745
  241  C 17  X    0.000000   0.000000   0.000000   0.000000   0.000000
  242  C 17  Y   -0.004523   0.002448   0.004891   0.005200  -0.000399
  243  C 17  Z   -0.003526   0.000966  -0.003535  -0.001047   0.002035
  244  C 17 XX    0.001109  -0.000890   0.002044   0.001913  -0.000815
  245  C 17 YY   -0.001367   0.000882  -0.000979  -0.001688   0.000267
  246  C 17 ZZ    0.000258   0.000008  -0.001065  -0.000225   0.000547
  247  C 17 XY    0.000000   0.000000   0.000000   0.000000   0.000000
  248  C 17 XZ    0.000000   0.000000   0.000000   0.000000   0.000000
  249  C 17 YZ   -0.002939   0.003157   0.007464   0.006111  -0.000442
  250  C 18  S    0.000173   0.000210  -0.709173   0.710728  -0.000385
  251  C 18  S    0.000239   0.000299  -0.005496   0.005316  -0.000547
  252  C 18  S    0.003391   0.002427   0.047399  -0.036105   0.011281
  253  C 18  X    0.000000   0.000000   0.000000   0.000000   0.000000
  254  C 18  Y   -0.000233  -0.000235   0.000803  -0.000814  -0.000101
  255  C 18  Z    0.000067   0.000063  -0.000181   0.000174  -0.000027
  256  C 18  X    0.000000   0.000000   0.000000   0.000000   0.000000
  257  C 18  Y   -0.010542  -0.010847   0.022374  -0.019474   0.003062
  258  C 18  Z    0.003533   0.003118   0.012961  -0.007453   0.009008
  259  C 18 XX    0.000011   0.000021   0.000526  -0.000557  -0.000132
  260  C 18 YY   -0.000167  -0.000176  -0.000489   0.000490   0.000101
  261  C 18 ZZ    0.000156   0.000155  -0.000037   0.000067   0.000031
  262  C 18 XY    0.000000   0.000000   0.000000   0.000000   0.000000
  263  C 18 XZ    0.000000   0.000000   0.000000   0.000000   0.000000
  264  C 18 YZ    0.000107   0.000092   0.000103  -0.000111  -0.000036
  265  C 18  S    0.020444   0.009771   0.021508  -0.013721   0.004750
  266  C 18  X    0.000000   0.000000   0.000000   0.000000   0.000000
  267  C 18  Y   -0.004529  -0.002437   0.004878  -0.005211   0.000399
  268  C 18  Z    0.003528   0.000958   0.003533  -0.001055   0.002035
  269  C 18 XX   -0.001111  -0.000887  -0.002040   0.001918  -0.000815
  270  C 18 YY    0.001369   0.000879   0.000976  -0.001690   0.000267
  271  C 18 ZZ   -0.000258   0.000008   0.001064  -0.000228   0.000548
  272  C 18 XY    0.000000   0.000000   0.000000   0.000000   0.000000
  273  C 18 XZ    0.000000   0.000000   0.000000   0.000000   0.000000
  274  C 18 YZ   -0.002947  -0.003150   0.007449  -0.006128   0.000442
  275  N 19  S   -0.708300   0.709994   0.000091   0.000116   0.000062
  276  N 19  S   -0.003725   0.003680   0.000555   0.000595   0.000100
  277  N 19  S    0.016620  -0.016108  -0.004914  -0.005048  -0.001595
  278  N 19  X    0.000000   0.000000   0.000000   0.000000   0.000000
  279  N 19  Y    0.000253  -0.000253  -0.000215  -0.000221   0.000002
  280  N 19  Z    0.000085  -0.000082  -0.000073  -0.000073   0.000012
  281  N 19  X    0.000000   0.000000   0.000000   0.000000   0.000000
  282  N 19  Y   -0.003982   0.003937   0.001945   0.002373   0.001358
  283  N 19  Z   -0.000957   0.000848   0.000820   0.000695  -0.000078
  284  N 19 XX    0.000177  -0.000176   0.000210   0.000215   0.000034
  285  N 19 YY   -0.000085   0.000085  -0.000105  -0.000107  -0.000020
  286  N 19 ZZ   -0.000091   0.000091  -0.000105  -0.000107  -0.000014
  287  N 19 XY    0.000000   0.000000   0.000000   0.000000   0.000000
  288  N 19 XZ    0.000000   0.000000   0.000000   0.000000   0.000000
  289  N 19 YZ    0.000008  -0.000010  -0.000041  -0.000047  -0.000036
  290  N 19  S    0.017382  -0.013021  -0.002582  -0.004152   0.000116
  291  N 19  X    0.000000   0.000000   0.000000   0.000000   0.000000
  292  N 19  Y   -0.002576   0.002233   0.000810   0.000903   0.000127
  293  N 19  Z   -0.001132   0.000758   0.000592   0.000560   0.000406
  294  N 19 XX   -0.000541   0.000474  -0.000215  -0.000127   0.000040
  295  N 19 YY    0.000704  -0.000710  -0.000424  -0.000583  -0.000357
  296  N 19 ZZ   -0.000163   0.000237   0.000639   0.000710   0.000317
  297  N 19 XY    0.000000   0.000000   0.000000   0.000000   0.000000
  298  N 19 XZ    0.000000   0.000000   0.000000   0.000000   0.000000
  299  N 19 YZ    0.000278  -0.000243  -0.000718  -0.000692   0.000272
  300  N 20  S    0.710025   0.708268  -0.000091   0.000116   0.000062
  301  N 20  S    0.003734   0.003671  -0.000554   0.000596   0.000100
  302  N 20  S   -0.016659  -0.016067   0.004902  -0.005060  -0.001595
  303  N 20  X    0.000000   0.000000   0.000000   0.000000   0.000000
  304  N 20  Y    0.000254   0.000252  -0.000214   0.000221  -0.000002
  305  N 20  Z   -0.000085  -0.000082   0.000073  -0.000073   0.000012
  306  N 20  X    0.000000   0.000000   0.000000   0.000000   0.000000
  307  N 20  Y   -0.003992  -0.003928   0.001939  -0.002378  -0.001358
  308  N 20  Z    0.000959   0.000845  -0.000819   0.000697  -0.000078
  309  N 20 XX   -0.000177  -0.000176  -0.000210   0.000215   0.000034
  310  N 20 YY    0.000086   0.000085   0.000105  -0.000107  -0.000020
  311  N 20 ZZ    0.000092   0.000091   0.000105  -0.000108  -0.000014
  312  N 20 XY    0.000000   0.000000   0.000000   0.000000   0.000000
  313  N 20 XZ    0.000000   0.000000   0.000000   0.000000   0.000000
  314  N 20 YZ    0.000008   0.000010  -0.000041   0.000048   0.000036
  315  N 20  S   -0.017413  -0.012979   0.002572  -0.004158   0.000115
  316  N 20  X    0.000000   0.000000   0.000000   0.000000   0.000000
  317  N 20  Y   -0.002581  -0.002227   0.000807  -0.000904  -0.000127
  318  N 20  Z    0.001134   0.000755  -0.000591   0.000561   0.000406
  319  N 20 XX    0.000542   0.000472   0.000215  -0.000128   0.000040
  320  N 20 YY   -0.000705  -0.000709   0.000423  -0.000584  -0.000357
  321  N 20 ZZ    0.000163   0.000236  -0.000638   0.000712   0.000317
  322  N 20 XY    0.000000   0.000000   0.000000   0.000000   0.000000
  323  N 20 XZ    0.000000   0.000000   0.000000   0.000000   0.000000
  324  N 20 YZ    0.000278   0.000242  -0.000716   0.000693  -0.000272

                      6          7          8          9         10
                  -11.4193   -11.3596   -11.3596   -11.3551    -1.4037
                     A          A          A          A          A   
    1  H  1  S    0.000000   0.000000  -0.000053   0.000356   0.003209
    2  H  1  S    0.000000   0.000001   0.007960   0.002066  -0.020591
    3  H  1  X    0.000000   0.000000   0.000000   0.000000   0.000000
    4  H  1  Y   -0.000003   0.000075   0.000000   0.000000   0.000000
    5  H  1  Z    0.000000   0.000000   0.000055   0.000093  -0.000890
    6  H  1  S    0.000000   0.000001   0.004152  -0.009644   0.007281
    7  H  1  X    0.000000   0.000000   0.000000   0.000000   0.000000
    8  H  1  Y   -0.001551  -0.002900   0.000000   0.000000   0.000000
    9  H  1  Z    0.000000   0.000000  -0.002302  -0.001112   0.004880
   10  H  2  S   -0.000242   0.000092  -0.000036  -0.000117   0.007021
   11  H  2  S    0.003228  -0.000448  -0.000674  -0.001740   0.012307
   12  H  2  X    0.000000   0.000000   0.000000   0.000000   0.000000
   13  H  2  Y    0.000046  -0.000063   0.000018   0.000021  -0.000102
   14  H  2  Z    0.000096  -0.000035   0.000088   0.000100   0.001485
   15  H  2  S    0.010037   0.002341   0.000220   0.002763   0.000838
   16  H  2  X    0.000000   0.000000   0.000000   0.000000   0.000000
   17  H  2  Y   -0.001270  -0.003071   0.000533  -0.000501  -0.001020
   18  H  2  Z    0.000566  -0.000182   0.000153  -0.000012   0.003476
   19  H  3  S    0.000242  -0.000092  -0.000036  -0.000117   0.007021
   20  H  3  S   -0.003227   0.000448  -0.000674  -0.001740   0.012306
   21  H  3  X    0.000000   0.000000   0.000000   0.000000   0.000000
   22  H  3  Y    0.000046  -0.000063  -0.000018  -0.000021   0.000102
   23  H  3  Z   -0.000096   0.000035   0.000088   0.000100   0.001485
   24  H  3  S   -0.010038  -0.002341   0.000220   0.002763   0.000839
   25  H  3  X    0.000000   0.000000   0.000000   0.000000   0.000000
   26  H  3  Y   -0.001270  -0.003071  -0.000532   0.000501   0.001020
   27  H  3  Z   -0.000565   0.000182   0.000153  -0.000012   0.003476
   28  H  4  S    0.000055  -0.000269   0.000260  -0.000028   0.017547
   29  H  4  S    0.000345  -0.001295   0.002526   0.005264   0.031149
   30  H  4  X    0.000000   0.000000   0.000000   0.000000   0.000000
   31  H  4  Y   -0.000022  -0.000028   0.000008   0.000093  -0.000460
   32  H  4  Z    0.000055  -0.000070   0.000078   0.000033  -0.003243
   33  H  4  S   -0.000700   0.004315  -0.004058   0.004114   0.000697
   34  H  4  X    0.000000   0.000000   0.000000   0.000000   0.000000
   35  H  4  Y   -0.000211  -0.001876   0.000358  -0.000547  -0.007268
   36  H  4  Z    0.000222   0.000736  -0.001203  -0.001480  -0.008110
   37  H  5  S   -0.000055   0.000269   0.000260  -0.000028   0.017547
   38  H  5  S   -0.000345   0.001295   0.002526   0.005264   0.031149
   39  H  5  X    0.000000   0.000000   0.000000   0.000000   0.000000
   40  H  5  Y   -0.000022  -0.000028  -0.000008  -0.000093   0.000460
   41  H  5  Z   -0.000055   0.000071   0.000078   0.000033  -0.003243
   42  H  5  S    0.000701  -0.004317  -0.004056   0.004114   0.000696
   43  H  5  X    0.000000   0.000000   0.000000   0.000000   0.000000
   44  H  5  Y   -0.000211  -0.001876  -0.000358   0.000547   0.007268
   45  H  5  Z   -0.000222  -0.000737  -0.001202  -0.001479  -0.008110
   46  H  6  S    0.000028   0.000080  -0.000059   0.000030   0.044001
   47  H  6  S   -0.003775   0.001432   0.000719   0.000726   0.035980
   48  H  6  X    0.000000   0.000000   0.000000   0.000000   0.000000
   49  H  6  Y   -0.000081  -0.000072   0.000048   0.000021   0.001594
   50  H  6  Z    0.000011  -0.000064   0.000042  -0.000003   0.007945
   51  H  6  S   -0.001587  -0.001827   0.002168  -0.000852   0.000500
   52  H  6  X    0.000000   0.000000   0.000000   0.000000   0.000000
   53  H  6  Y   -0.000650  -0.001233   0.000369  -0.000034  -0.015122
   54  H  6  Z   -0.001043   0.000128   0.000569   0.000279   0.010892
   55  H  7  S   -0.000028  -0.000080  -0.000059   0.000030   0.044001
   56  H  7  S    0.003776  -0.001431   0.000720   0.000726   0.035980
   57  H  7  X    0.000000   0.000000   0.000000   0.000000   0.000000
   58  H  7  Y   -0.000081  -0.000072  -0.000048  -0.000021  -0.001594
   59  H  7  Z   -0.000011   0.000064   0.000042  -0.000003   0.007945
   60  H  7  S    0.001587   0.001828   0.002168  -0.000852   0.000500
   61  H  7  X    0.000000   0.000000   0.000000   0.000000   0.000000
   62  H  7  Y   -0.000650  -0.001233  -0.000368   0.000034   0.015122
   63  H  7  Z    0.001044  -0.000128   0.000569   0.000279   0.010892
   64  H  8  S    0.000018   0.000068  -0.000081  -0.000023   0.106368
   65  H  8  S    0.001291  -0.000914   0.000809  -0.001139   0.051217
   66  H  8  X    0.000000   0.000000   0.000000   0.000000   0.000000
   67  H  8  Y    0.000013  -0.000067   0.000052  -0.000007  -0.005125
   68  H  8  Z    0.000025   0.000041  -0.000068   0.000004  -0.017928
   69  H  8  S   -0.000708  -0.000275  -0.000024  -0.000543  -0.000774
   70  H  8  X    0.000000   0.000000   0.000000   0.000000   0.000000
   71  H  8  Y   -0.000225   0.000206  -0.000128   0.000005  -0.005952
   72  H  8  Z   -0.000454   0.000238  -0.000142   0.000274  -0.014672
   73  H  9  S   -0.000018  -0.000068  -0.000081  -0.000023   0.106368
   74  H  9  S   -0.001292   0.000914   0.000808  -0.001139   0.051217
   75  H  9  X    0.000000   0.000000   0.000000   0.000000   0.000000
   76  H  9  Y    0.000013  -0.000067  -0.000052   0.000007   0.005125
   77  H  9  Z   -0.000025  -0.000041  -0.000068   0.000004  -0.017928
   78  H  9  S    0.000708   0.000275  -0.000024  -0.000543  -0.000774
   79  H  9  X    0.000000   0.000000   0.000000   0.000000   0.000000
   80  H  9  Y   -0.000225   0.000206   0.000128  -0.000005   0.005952
   81  H  9  Z    0.000454  -0.000238  -0.000141   0.000274  -0.014672
   82  H 10  S    0.000013   0.000165  -0.000175   0.000020   0.106378
   83  H 10  S    0.000511   0.001998   0.000047   0.000393   0.017966
   84  H 10  X    0.000000   0.000000   0.000000   0.000000   0.000000
   85  H 10  Y    0.000000  -0.000005   0.000024   0.000024  -0.015871
   86  H 10  Z   -0.000008  -0.000014   0.000041   0.000006   0.010329
   87  H 10  S    0.000759  -0.000221   0.000301   0.000442  -0.003795
   88  H 10  X    0.000000   0.000000   0.000000   0.000000   0.000000
   89  H 10  Y   -0.000090  -0.000458  -0.000116  -0.000129  -0.002934
   90  H 10  Z   -0.000006   0.000171   0.000134   0.000048   0.002868
   91  H 11  S   -0.000013  -0.000165  -0.000175   0.000020   0.106377
   92  H 11  S   -0.000511  -0.001998   0.000047   0.000393   0.017966
   93  H 11  X    0.000000   0.000000   0.000000   0.000000   0.000000
   94  H 11  Y    0.000000  -0.000005  -0.000024  -0.000024   0.015871
   95  H 11  Z    0.000008   0.000014   0.000041   0.000006   0.010329
   96  H 11  S   -0.000759   0.000221   0.000301   0.000442  -0.003795
   97  H 11  X    0.000000   0.000000   0.000000   0.000000   0.000000
   98  H 11  Y   -0.000090  -0.000458   0.000116   0.000129   0.002934
   99  H 11  Z    0.000006  -0.000171   0.000134   0.000048   0.002868
  100  C 12  S    0.000002  -0.000001  -0.005964   1.004315  -0.001594
  101  C 12  S    0.000000   0.000000  -0.000940   0.008631   0.007816
  102  C 12  S    0.000002   0.000004   0.022559  -0.056675   0.043065
  103  C 12  X    0.000000   0.000000   0.000000   0.000000   0.000000
  104  C 12  Y   -0.000213   0.000112   0.000000   0.000000   0.000000
  105  C 12  Z    0.000000   0.000000   0.000084  -0.000286  -0.002019
  106  C 12  X    0.000000   0.000000   0.000000   0.000000   0.000000
  107  C 12  Y   -0.043953  -0.074501   0.000012   0.000000   0.000001
  108  C 12  Z   -0.000001  -0.000002  -0.013825   0.009698  -0.003327
  109  C 12 XX    0.000000   0.000000  -0.000173  -0.000510  -0.000496
  110  C 12 YY    0.000000   0.000000   0.000094   0.000400   0.002218
  111  C 12 ZZ    0.000000   0.000000   0.000079   0.000110  -0.001722
  112  C 12 XY    0.000000   0.000000   0.000000   0.000000   0.000000
  113  C 12 XZ    0.000000   0.000000   0.000000   0.000000   0.000000
  114  C 12 YZ   -0.000047   0.000129   0.000000   0.000000   0.000000
  115  C 12  S    0.000004   0.000002   0.009526  -0.091243   0.062917
  116  C 12  X    0.000000   0.000000   0.000000   0.000000   0.000000
  117  C 12  Y   -0.021533   0.001023   0.000000   0.000000   0.000001
  118  C 12  Z   -0.000001  -0.000001  -0.006679   0.018503  -0.005019
  119  C 12 XX    0.000000   0.000000  -0.000731   0.004574   0.000996
  120  C 12 YY    0.000000   0.000000  -0.000227  -0.007848  -0.006949
  121  C 12 ZZ    0.000000   0.000000   0.000958   0.003274   0.005953
  122  C 12 XY    0.000000   0.000000   0.000000   0.000000   0.000000
  123  C 12 XZ    0.000000   0.000000   0.000000   0.000000   0.000000
  124  C 12 YZ    0.011593   0.018748  -0.000003   0.000000   0.000000
  125  C 13  S   -0.710166   0.007227  -0.007248  -0.010015  -0.001737
  126  C 13  S   -0.005994  -0.000018  -0.000175  -0.000166   0.017304
  127  C 13  S    0.044934   0.006043   0.010710   0.008663  -0.039323
  128  C 13  X    0.000000   0.000000   0.000000   0.000000   0.000000
  129  C 13  Y    0.000000  -0.000030   0.000149  -0.000118   0.007538
  130  C 13  Z    0.000014  -0.000071  -0.000013   0.000055   0.002720
  131  C 13  X    0.000000   0.000000   0.000000   0.000000   0.000000
  132  C 13  Y   -0.022807  -0.071756   0.018329  -0.021805   0.024626
  133  C 13  Z    0.011842   0.004967   0.006137   0.005394  -0.017003
  134  C 13 XX    0.000452  -0.000103   0.000144   0.000195  -0.001149
  135  C 13 YY   -0.000317   0.000049  -0.000110  -0.000111   0.003521
  136  C 13 ZZ   -0.000135   0.000054  -0.000034  -0.000085  -0.002372
  137  C 13 XY    0.000000   0.000000   0.000000   0.000000   0.000000
  138  C 13 XZ    0.000000   0.000000   0.000000   0.000000   0.000000
  139  C 13 YZ    0.000004  -0.000015  -0.000078   0.000090   0.000136
  140  C 13  S    0.058536  -0.019435   0.012867   0.041786  -0.042848
  141  C 13  X    0.000000   0.000000   0.000000   0.000000   0.000000
  142  C 13  Y   -0.009719  -0.021537   0.008402  -0.016184  -0.005639
  143  C 13  Z    0.013709  -0.004411   0.001023   0.008063  -0.003454
  144  C 13 XX   -0.003638   0.000712  -0.000143  -0.000621  -0.001504
  145  C 13 YY    0.005751  -0.002697  -0.002180  -0.001837   0.010238
  146  C 13 ZZ   -0.002113   0.001985   0.002323   0.002458  -0.008734
  147  C 13 XY    0.000000   0.000000   0.000000   0.000000   0.000000
[...]
            150  C 14  S      2.00837     1.80636
            151  C 14  S      0.68192     0.45081
            152  C 14  S      0.61774     0.17313
            153  C 14  X      0.39077     0.31577
            154  C 14  Y      0.80088     0.66685
            155  C 14  Z      0.74638     0.62598
            156  C 14  X      0.30789     0.23132
            157  C 14  Y     -0.15230     0.22293
            158  C 14  Z      0.27390     0.27787
            159  C 14 XX      0.02662     0.05576
            160  C 14 YY      0.01470     0.16842
            161  C 14 ZZ      0.02982     0.14608
            162  C 14 XY      0.00395     0.04544
            163  C 14 XZ      0.02422     0.00586
            164  C 14 YZ      0.00000     0.04880
            165  C 14  S     -0.44516     0.04344
            166  C 14  X     -0.00115     0.02867
            167  C 14  Y      0.21425     0.04599
            168  C 14  Z      0.19203     0.03162
            169  C 14 XX     -0.11500     0.00655
            170  C 14 YY      0.02322     0.14504
            171  C 14 ZZ      0.03753     0.12038
            172  C 14 XY     -0.00055     0.19138
            173  C 14 XZ      0.13647     0.01747
            174  C 14 YZ      0.00000     0.14788
            175  C 15  S      2.00886     1.80515
            176  C 15  S      0.64001     0.42899
            177  C 15  S      0.08664     0.17434
            178  C 15  X      0.65017     0.53683
            179  C 15  Y      0.72672     0.61546
            180  C 15  Z      0.71073     0.59997
            181  C 15  X      0.48491     0.30643
            182  C 15  Y     -0.02685     0.22325
            183  C 15  Z      0.12565     0.28363
            184  C 15 XX      0.02280     0.05462
            185  C 15 YY      0.01198     0.16327
            186  C 15 ZZ      0.00760     0.14572
            187  C 15 XY      0.00612     0.01200
            188  C 15 XZ      0.02621     0.00748
            189  C 15 YZ      0.00000     0.05689
            190  C 15  S     -0.45585     0.04393
            191  C 15  X      0.01261     0.02900
            192  C 15  Y      0.14656     0.04046
            193  C 15  Z      0.14577     0.03166
            194  C 15 XX     -0.13057     0.00706
            195  C 15 YY     -0.00285     0.12508
            196  C 15 ZZ      0.01998     0.12453
            197  C 15 XY      0.00025     0.07443
            198  C 15 XZ     -0.14987     0.01985
            199  C 15 YZ      0.00000     0.13882
            200  C 16  S      2.00886     1.80515
            201  C 16  S      0.64001     0.42899
            202  C 16  S      0.08663     0.17434
            203  C 16  X      0.65017     0.53683
            204  C 16  Y      0.72672     0.61546
            205  C 16  Z      0.71073     0.59997
            206  C 16  X      0.48491     0.30643
            207  C 16  Y     -0.02685     0.22325
            208  C 16  Z      0.12565     0.28363
            209  C 16 XX      0.02280     0.05462
            210  C 16 YY      0.01198     0.16327
            211  C 16 ZZ      0.00760     0.14572
            212  C 16 XY      0.00612     0.01200
            213  C 16 XZ      0.02621     0.00748
            214  C 16 YZ      0.00000     0.05689
            215  C 16  S     -0.45587     0.04393
            216  C 16  X      0.01261     0.02900
            217  C 16  Y      0.14656     0.04046
            218  C 16  Z      0.14577     0.03166
            219  C 16 XX     -0.13057     0.00706
            220  C 16 YY     -0.00285     0.12508
            221  C 16 ZZ      0.01998     0.12453
            222  C 16 XY      0.00025     0.07443
            223  C 16 XZ     -0.14987     0.01985
            224  C 16 YZ      0.00000     0.13882
            225  C 17  S      2.00804     1.79279
            226  C 17  S      0.68134     0.45028
            227  C 17  S      0.61828     0.17071
            228  C 17  X      0.40490     0.32662
            229  C 17  Y      0.75491     0.63205
            230  C 17  Z      0.76784     0.63614
            231  C 17  X      0.22452     0.22134
            232  C 17  Y     -0.04977     0.20408
            233  C 17  Z     -0.18397     0.26946
            234  C 17 XX      0.02985     0.05243
            235  C 17 YY      0.02138     0.17920
            236  C 17 ZZ      0.04412     0.15292
            237  C 17 XY      0.00553     0.07444
            238  C 17 XZ      0.03058     0.00782
            239  C 17 YZ      0.00000     0.06306
            240  C 17  S     -0.15483     0.04222
            241  C 17  X      0.01505     0.02455
            242  C 17  Y      0.01502     0.03624
            243  C 17  Z      0.05215     0.02696
            244  C 17 XX     -0.10850     0.00620
            245  C 17 YY     -0.00537     0.15092
            246  C 17 ZZ      0.02359     0.12214
            247  C 17 XY     -0.01082     0.19725
            248  C 17 XZ     -0.06279     0.01938
            249  C 17 YZ      0.00000     0.14426
            250  C 18  S      2.00804     1.79279
            251  C 18  S      0.68134     0.45028
            252  C 18  S      0.61828     0.17071
            253  C 18  X      0.40490     0.32662
            254  C 18  Y      0.75491     0.63205
            255  C 18  Z      0.76784     0.63614
            256  C 18  X      0.22452     0.22134
            257  C 18  Y     -0.04977     0.20408
            258  C 18  Z     -0.18397     0.26946
            259  C 18 XX      0.02985     0.05243
            260  C 18 YY      0.02138     0.17920
            261  C 18 ZZ      0.04412     0.15292
            262  C 18 XY      0.00553     0.07444
            263  C 18 XZ      0.03058     0.00782
            264  C 18 YZ      0.00000     0.06306
            265  C 18  S     -0.15483     0.04222
            266  C 18  X      0.01505     0.02455
            267  C 18  Y      0.01502     0.03624
            268  C 18  Z      0.05216     0.02696
            269  C 18 XX     -0.10850     0.00620
            270  C 18 YY     -0.00537     0.15092
            271  C 18 ZZ      0.02359     0.12214
            272  C 18 XY     -0.01082     0.19725
            273  C 18 XZ     -0.06279     0.01938
            274  C 18 YZ      0.00000     0.14426
            275  N 19  S      2.00571     1.84272
            276  N 19  S      0.71178     0.48383
            277  N 19  S      0.77610     0.24168
            278  N 19  X      0.91482     0.83038
            279  N 19  Y      0.76894     0.66719
            280  N 19  Z      0.76961     0.66471
            281  N 19  X      0.74193     0.46400
            282  N 19  Y      0.28254     0.36207
            283  N 19  Z      0.29961     0.39002
            284  N 19 XX      0.00850     0.08650
            285  N 19 YY      0.00533     0.15184
            286  N 19 ZZ      0.00339     0.14184
            287  N 19 XY      0.00041     0.00449
            288  N 19 XZ      0.01208     0.00061
            289  N 19 YZ      0.00000     0.02294
            290  N 19  S     -0.08649     0.05042
            291  N 19  X      0.03842     0.03851
            292  N 19  Y      0.03315     0.04587
            293  N 19  Z     -0.00417     0.03976
            294  N 19 XX     -0.01622     0.01059
            295  N 19 YY      0.00243     0.09859
            296  N 19 ZZ      0.01447     0.06980
            297  N 19 XY      0.00140     0.03971
            298  N 19 XZ     -0.01845     0.00432
            299  N 19 YZ      0.00000     0.11185
            300  N 20  S      2.00571     1.84272
            301  N 20  S      0.71178     0.48383
            302  N 20  S      0.77610     0.24168
            303  N 20  X      0.91482     0.83038
            304  N 20  Y      0.76894     0.66719
            305  N 20  Z      0.76961     0.66471
            306  N 20  X      0.74193     0.46400
            307  N 20  Y      0.28254     0.36207
            308  N 20  Z      0.29961     0.39002
            309  N 20 XX      0.00850     0.08650
            310  N 20 YY      0.00533     0.15184
            311  N 20 ZZ      0.00339     0.14184
            312  N 20 XY      0.00041     0.00449
            313  N 20 XZ      0.01208     0.00061
            314  N 20 YZ      0.00000     0.02294
            315  N 20  S     -0.08649     0.05042
            316  N 20  X      0.03842     0.03851
            317  N 20  Y      0.03315     0.04587
            318  N 20  Z     -0.00417     0.03976
            319  N 20 XX     -0.01622     0.01059
            320  N 20 YY      0.00243     0.09859
            321  N 20 ZZ      0.01447     0.06980
            322  N 20 XY      0.00140     0.03971
            323  N 20 XZ     -0.01845     0.00432
            324  N 20 YZ      0.00000     0.11185

          ----- MULLIKEN ATOMIC OVERLAP POPULATIONS -----
          (OFF-DIAGONAL ELEMENTS NEED TO BE MULTIPLIED BY 2)

             1           2           3           4           5

    1    2.0204359
    2    0.0830535   2.0235831
    3    0.0830526  -0.1687905   2.0235813
    4   -0.1018798   0.0694529  -0.0136730   1.8720166
    5   -0.1018772  -0.0136737   0.0694539   0.0093685   1.8720128
    6   -0.0029678  -0.0819372   0.0110593   0.0385795   0.0003651
    7   -0.0029674   0.0110596  -0.0819374   0.0003650   0.0385788
    8    0.0002092  -0.0018632   0.0003116   0.0262977  -0.0001426
    9    0.0002090   0.0003117  -0.0018632  -0.0001426   0.0262981
   10    0.0003142   0.0012188  -0.0003441  -0.0059125  -0.0000174
   11    0.0003143  -0.0003441   0.0012189  -0.0000174  -0.0059128
   12   -1.0615027   0.3618384   0.3618054  -0.0019716  -0.0019649
   13    0.1738735  -0.5777457   0.0228616   0.9292607   0.1104261
   14    0.1738938   0.0228567  -0.5777098   0.1104203   0.9292724
   15    0.0744763  -0.2600849   0.1093678  -0.8654165  -0.0115758
   16    0.0744822   0.1093703  -0.2600949  -0.0115750  -0.8654353
   17    0.0607581  -0.0469004   0.0065211  -0.4662515   0.0001897
   18    0.0607637   0.0065216  -0.0468953   0.0001893  -0.4662579
   19    0.0059682   0.0278368  -0.0021091  -0.0088598  -0.0002544
   20    0.0059677  -0.0021092   0.0278368  -0.0002543  -0.0088584

             6           7           8           9          10

    6    1.3434681
    7   -0.0002258   1.3434687
    8    0.0164079  -0.0000068   0.8329091
    9   -0.0000068   0.0164078   0.0000017   0.8329090
   10   -0.0280532   0.0000103  -0.1802144   0.0000004   0.8203376
   11    0.0000103  -0.0280533   0.0000004  -0.1802146  -0.0000005
   12    0.0322515   0.0322510   0.0102644   0.0102643   0.0008438
   13   -0.1066479   0.0090341  -0.0613847  -0.0013990  -0.0145582
   14    0.0090336  -0.1066447  -0.0013991  -0.0613832  -0.0012180
   15    0.1878275  -0.0002014   0.1839959  -0.0000546  -0.0028970
   16   -0.0002019   0.1878242  -0.0000546   0.1839985   0.0002628
   17   -0.0218595  -0.0002009  -0.2193727   0.0000646  -0.0756283
   18   -0.0002009  -0.0218614   0.0000646  -0.2193779  -0.0000329
   19   -0.0140354   0.0000470   0.4218500   0.0000002   0.4411027
   20    0.0000470  -0.0140336   0.0000002   0.4218516   0.0000001

            11          12          13          14          15

   11    0.8203378
   12    0.0008439  13.7170644
   13   -0.0012181  -3.7009961  12.2518191
   14   -0.0145587  -3.7009202   0.1070241  12.2517075
   15    0.0002628  -0.4662844  -2.7231609  -0.6165937  10.8449958
   16   -0.0028993  -0.4664183  -0.6165813  -2.7231080  -0.0566704
   17   -0.0000329  -0.1020128   0.0484301   0.0090020  -1.2204007
   18   -0.0756245  -0.1019860   0.0089888   0.0483775   0.0301810
   19    0.0000001  -0.0150635  -0.0502526   0.0087178  -0.1398495
   20    0.4411018  -0.0150607   0.0087164  -0.0502596  -0.0003184

            16          17          18          19          20

   16   10.8450800
   17    0.0301771   6.7738894
   18   -1.2204243  -0.0091081   6.7739521
   19   -0.0003184   0.3534310   0.0003530   6.2367449
   20   -0.1398404   0.0003530   0.3534263  -0.0000081   6.2367454

          TOTAL MULLIKEN AND LOWDIN ATOMIC POPULATIONS
       ATOM         MULL.POP.    CHARGE          LOW.POP.     CHARGE
    1 H             1.546577   -0.546577         0.929446    0.070554
    2 H             1.563654   -0.563654         0.915608    0.084392
    3 H             1.563653   -0.563653         0.915608    0.084392
    4 H             1.579996   -0.579996         0.929378    0.070622
    5 H             1.579995   -0.579995         0.929378    0.070622
    6 H             1.382913   -0.382913         0.900653    0.099347
    7 H             1.382914   -0.382914         0.900653    0.099347
    8 H             1.027875   -0.027875         0.915271    0.084729
    9 H             1.027875   -0.027875         0.915271    0.084729
   10 H             0.955214    0.044786         0.913394    0.086606
   11 H             0.955214    0.044786         0.913394    0.086606
   12 C             4.893246    1.106754         6.049271   -0.049271
   13 C             5.816490    0.183510         6.019806   -0.019806
   14 C             5.816511    0.183489         6.019806   -0.019806
   15 C             5.067599    0.932401         6.048847   -0.048847
   16 C             5.067573    0.932427         6.048847   -0.048847
   17 C             5.121048    0.878952         6.003440   -0.003440
   18 C             5.121049    0.878951         6.003440   -0.003440
   19 N             7.265301   -0.265301         6.864245    0.135755
   20 N             7.265304   -0.265304         6.864245    0.135755

          MULLIKEN SPHERICAL HARMONIC POPULATIONS
       ATOM           S       P       D      F      G      H      I    TOTAL
    1 H             1.54    0.01    0.00   0.00   0.00   0.00   0.00    1.55
    2 H             1.56    0.00    0.00   0.00   0.00   0.00   0.00    1.56
    3 H             1.56    0.00    0.00   0.00   0.00   0.00   0.00    1.56
    4 H             1.56    0.02    0.00   0.00   0.00   0.00   0.00    1.58
    5 H             1.56    0.02    0.00   0.00   0.00   0.00   0.00    1.58
    6 H             1.36    0.02    0.00   0.00   0.00   0.00   0.00    1.38
    7 H             1.36    0.02    0.00   0.00   0.00   0.00   0.00    1.38
    8 H             0.99    0.04    0.00   0.00   0.00   0.00   0.00    1.03
    9 H             0.99    0.04    0.00   0.00   0.00   0.00   0.00    1.03
   10 H             0.94    0.02    0.00   0.00   0.00   0.00   0.00    0.96
   11 H             0.94    0.02    0.00   0.00   0.00   0.00   0.00    0.96
   12 C             2.44    2.64   -0.18   0.00   0.00   0.00   0.00    4.89
   13 C             2.86    2.77    0.18   0.00   0.00   0.00   0.00    5.82
   14 C             2.86    2.77    0.18   0.00   0.00   0.00   0.00    5.82
   15 C             2.28    2.98   -0.19   0.00   0.00   0.00   0.00    5.07
   16 C             2.28    2.98   -0.19   0.00   0.00   0.00   0.00    5.07
   17 C             3.15    2.00   -0.03   0.00   0.00   0.00   0.00    5.12
   18 C             3.15    2.00   -0.03   0.00   0.00   0.00   0.00    5.12
   19 N             3.41    3.84    0.01   0.00   0.00   0.00   0.00    7.27
   20 N             3.41    3.84    0.01   0.00   0.00   0.00   0.00    7.27

          -------------------------------
          BOND ORDER AND VALENCE ANALYSIS     BOND ORDER THRESHOLD=0.050
          -------------------------------

                   BOND                       BOND                       BOND
  ATOM PAIR DIST  ORDER      ATOM PAIR DIST  ORDER      ATOM PAIR DIST  ORDER
    1   2  3.079  0.051        1   3  3.079  0.051        1  12  1.085 -0.284
    1  13  2.135  0.482        1  14  2.135  0.482        1  15  2.728 -0.098
    1  16  2.728 -0.098        2   3  2.340 -0.076        2  12  2.116  0.525
    2  14  2.615 -0.185        2  15  2.122  0.212        2  16  4.005  0.085
    2  17  2.596 -0.138        3  12  2.116  0.525        3  13  2.615 -0.185
    3  15  4.005  0.085        3  16  2.122  0.212        3  18  2.596 -0.138
    4  12  2.739 -0.269        4  13  2.146  1.035        4  14  4.115  0.095
    4  15  1.085 -0.202        4  17  2.133 -0.056        5  12  2.739 -0.269
    5  13  4.115  0.095        5  14  2.146  1.035        5  16  1.085 -0.202
    5  18  2.133 -0.056        6  12  4.008  0.075        6  17  1.085  0.746
    7  12  4.008  0.075        7  18  1.085  0.746        8  10  1.716 -0.092
    8  13  4.037 -0.051        8  15  2.663  0.135        8  17  2.038 -0.198
    8  19  1.006  1.118        9  11  1.716 -0.092        9  14  4.037 -0.051
    9  16  2.663  0.135        9  18  2.038 -0.198        9  20  1.006  1.118
   10  17  2.033 -0.068       10  19  1.004  1.071       11  18  2.033 -0.068
   11  20  1.004  1.071       12  13  1.384  1.816       12  14  1.384  1.816
   12  15  2.467 -0.594       12  16  2.467 -0.594       12  17  3.703  0.186
   12  18  3.703  0.186       13  14  2.416 -0.272       13  15  1.390  2.151
   13  16  3.721  0.186       13  17  2.402 -0.162       14  15  3.721  0.186
   14  16  1.390  2.151       14  18  2.402 -0.162       15  17  1.376  1.221
   15  18  6.117  0.086       16  17  6.117  0.086       16  18  1.376  1.221
   17  18  7.206  0.057       17  19  1.322  1.148       18  20  1.322  1.148

                       TOTAL       BONDED        FREE
      ATOM            VALENCE     VALENCE     VALENCE
    1 H                 0.536       0.536       0.000
    2 H                 0.524       0.524       0.000
    3 H                 0.524       0.524       0.000
    4 H                 0.642       0.642       0.000
    5 H                 0.642       0.642       0.000
    6 H                 0.839       0.839       0.000
    7 H                 0.839       0.839       0.000
    8 H                 0.975       0.975       0.000
    9 H                 0.975       0.975       0.000
   10 H                 0.889       0.889       0.000
   11 H                 0.889       0.889       0.000
   12 C                 3.265       3.265       0.000
   13 C                 5.091       5.091       0.000
   14 C                 5.091       5.091       0.000
   15 C                 3.148       3.148       0.000
   16 C                 3.148       3.148       0.000
   17 C                 2.827       2.827       0.000
   18 C                 2.827       2.827       0.000
   19 N                 3.376       3.376       0.000
   20 N                 3.376       3.376       0.000

          ---------------------
          ELECTROSTATIC MOMENTS
          ---------------------

 POINT   1           X           Y           Z (BOHR)    CHARGE
                 0.000000    0.000000    0.003789        1.00 (A.U.)
         DX          DY          DZ         /D/  (DEBYE)
     0.000000    0.000000   -1.381548    1.381548
 ...... END OF PROPERTY EVALUATION ......
 ON NODE 0, STEP CPU TIME =     0.32 TOTAL CPU TIME =      115.0 (    1.9 MIN)
 TOTAL WALL CLOCK TIME=      118.0 SECONDS, CPU UTILIZATION IS  97.49%
                852886  WORDS OF DYNAMIC MEMORY USED
 EXECUTION OF GAMESS TERMINATED NORMALLY Tue Sep 19 10:53:11 2017
 DDI: 1128 bytes (0.0 MB / 0 MWords) used by master data server.

 ----------------------------------------
 CPU timing information for all processes
 ========================================
 0: 114.699168 + 0.368023 = 115.067191
 1: 114.819175 + 0.108006 = 114.927181
 2: 114.247140 + 0.220013 = 114.467153
 3: 114.755171 + 0.092005 = 114.847176
 4: 114.247140 + 0.164010 = 114.411150
 5: 114.807175 + 0.084005 = 114.891180
 6: 114.495155 + 0.192012 = 114.687167
 7: 114.399149 + 0.116007 = 114.515156
 ----------------------------------------
 ddikick.x: exited gracefully.
----- accounting info -----
Tue Sep 19 10:53:14 CEST 2017
Files used on the master node lpqlx139 were:
-rw-r--r-- 1 scemama scemama  1609829 Sep 19 10:53 /tmp/gamess/C7.dat
-rw-r--r-- 1 scemama scemama     1267 Sep 19 10:51 /tmp/gamess/C7.F05
-rw-r--r-- 1 scemama scemama 27615680 Sep 19 10:53 /tmp/gamess/C7.F10
0.084u 0.016s 2:00.88 0.0%	0+0k 0+8io 0pf+0w
