----- GAMESS execution script -----
This job is running on host lpqlx139
under operating system Linux at Tue Sep 19 10:54:57 CEST 2017
Available scratch disk space (Kbyte units) at beginning of the job is
Filesystem                                             1K-blocks     Used Available Use% Mounted on
/dev/disk/by-uuid/e0d35396-14d3-4d0f-9cc9-2a3899cf3e0f  51175000 49539124   1635876  97% /

 Distributed Data Interface kickoff program.
 Initiating 8 compute processes on 1 nodes to run the following command:
 /usr/local/gamess/gamess.01.x C9 

          ******************************************************
          *         GAMESS VERSION = 22 FEB 2006 (R5)          *
          *             FROM IOWA STATE UNIVERSITY             *
          * M.W.SCHMIDT, K.K.BALDRIDGE, J.A.BOATZ, S.T.ELBERT, *
          *   M.S.GORDON, J.H.JENSEN, S.KOSEKI, N.MATSUNAGA,   *
          *          K.A.NGUYEN, S.J.SU, T.L.WINDUS,           *
          *       TOGETHER WITH M.DUPUIS, J.A.MONTGOMERY       *
          *         J.COMPUT.CHEM.  14, 1347-1363(1993)        *
          ***************** AMD 64 BIT VERSION *****************

     SINCE 1993, STUDENTS AND POSTDOCS WORKING AT IOWA STATE UNIVERSITY
     AND ALSO IN THEIR VARIOUS JOBS AFTER LEAVING ISU HAVE MADE IMPORTANT
     CONTRIBUTIONS TO THE CODE:
     IVANA ADAMOVIC, CHRISTINE AIKENS, YURI ALEXEEV, POOJA ARORA, ROB BELL,
     PRADIPTA BANDYOPADHYAY, BRETT BODE, GALINA CHABAN, WEI CHEN,
     CHEOL HO CHOI, PAUL DAY, TIM DUDLEY, DMITRI FEDOROV, GRAHAM FLETCHER,
     MARK FREITAG, KURT GLAESEMANN, GRANT MERRILL, TAKESHI NAGATA,
     HEATHER NETZLOFF, BOSILJKA NJEGIC, RYAN OLSON, MIKE PAK, JIM SHOEMAKER,
     LYUDMILA SLIPCHENKO, JIE SONG, TETSUYA TAKETSUGU, SIMON WEBB.

     ADDITIONAL CODE HAS BEEN PROVIDED BY COLLABORATORS IN OTHER GROUPS:
     IOWA STATE UNIVERSITY: JOE IVANIC, KLAUS RUEDENBERG
     UNIVERSITY OF TOKYO: KIMIHIKO HIRAO, HARUYUKI NAKANO, TAKAHITO
          NAKAJIMA, TAKAO TSUNEDA, MUNEAKI KAMIYA, SUSUMU YANAGISAWA,
          KIYOSHI YAGI
     UNIVERSITY OF SOUTHERN DENMARK: FRANK JENSEN
     UNIVERSITY OF IOWA: VISVALDAS KAIRYS, HUI LI
     NATIONAL INST. OF STANDARDS AND TECHNOLOGY: WALT STEVENS, DAVID GARMER
     UNIVERSITY OF PISA: BENEDETTA MENNUCCI, JACOPO TOMASI
     UNIVERSITY OF MEMPHIS: HENRY KURTZ, PRAKASHAN KORAMBATH
     UNIVERSITY OF ALBERTA: MARIUSZ KLOBUKOWSKI
     UNIVERSITY OF NEW ENGLAND: MARK SPACKMAN
     MIE UNIVERSITY: HIROAKI UMEDA
     MICHIGAN STATE UNIVERSITY:
          KAROL KOWALSKI, MARTA WLOCH, PIOTR PIECUCH
     UNIVERSITY OF SILESIA: MONIKA MUSIAL, STANISLAW KUCHARSKI
     FACULTES UNIVERSITAIRES NOTRE-DAME DE LA PAIX:
          OLIVIER QUINET, BENOIT CHAMPAGNE
     UNIVERSITY OF CALIFORNIA - SANTA BARBARA: BERNARD KIRTMAN
     INSTITUTE FOR MOLECULAR SCIENCE: KAZUYA ISHIMURA AND SHIGERU NAGASE
     UNIVERSITY OF NOTRE DAME: DAN CHIPMAN
     KYUSHU UNIVERSITY:
          FENG LONG GU, JACEK KORCHOWIEC, MARCIN MAKOWSKI, AND YURIKO AOKI
     PENNSYLVANIA STATE UNIVERSITY:
          TZVETELIN IORDANOV, CHET SWALINA, SHARON HAMMES-SCHIFFER


 PARALLEL VERSION RUNNING ON     8 PROCESSORS IN     1 NODES.

 EXECUTION OF GAMESS BEGUN Tue Sep 19 10:54:57 2017

            ECHO OF THE FIRST FEW INPUT CARDS -
 INPUT CARD> $CONTRL                                                                        
 INPUT CARD>   EXETYP=RUN COORD=UNIQUE  UNITS=ANGS                                          
 INPUT CARD>   RUNTYP=ENERGY SCFTYP=RHF CITYP=NONE                                          
 INPUT CARD>   MAXIT=100                                                                    
 INPUT CARD>   ISPHER=1                                                                     
 INPUT CARD>   MULT=1                                                                       
 INPUT CARD>   ICHARG=1                                                                     
 INPUT CARD>   MPLEVL=0                                                                     
 INPUT CARD> $END                                                                           
 INPUT CARD>                                                                                
 INPUT CARD> $SYSTEM                                                                        
 INPUT CARD>  MWORDS=2000                                                                   
 INPUT CARD> $END                                                                           
 INPUT CARD>                                                                                
 INPUT CARD> $GUESS                                                                         
 INPUT CARD>  GUESS=HUCKEL                                                                  
 INPUT CARD> $END                                                                           
 INPUT CARD>                                                                                
 INPUT CARD> $SCF                                                                           
 INPUT CARD>  DIRSCF=.T. DIIS=.T.                                                           
 INPUT CARD> $END                                                                           
 INPUT CARD>                                                                                
 INPUT CARD> $BASIS                                                                         
 INPUT CARD>  GBASIS=ACCD                                                                   
 INPUT CARD> $END                                                                           
 INPUT CARD>                                                                                
 INPUT CARD> $DATA                                                                          
 INPUT CARD>C3                                                                              
 INPUT CARD>C1                                                                              
 INPUT CARD>H 1.0           0.000000    0.000000    1.241288                                
 INPUT CARD>H 1.0           0.000000    1.263096   -1.569624                                
 INPUT CARD>H 1.0           0.000000   -1.263096   -1.569624                                
 INPUT CARD>H 1.0           0.000000    2.354078    1.307718                                
 INPUT CARD>H 1.0           0.000000   -2.354078    1.307718                                
 INPUT CARD>H 1.0           0.000000    3.805047   -1.419354                                
 INPUT CARD>H 1.0           0.000000   -3.805047   -1.419354                                
 INPUT CARD>H 1.0           0.000000    4.694589    1.536243                                
 INPUT CARD>H 1.0           0.000000   -4.694589    1.536243                                
 INPUT CARD>H 1.0           0.000000    6.288701   -0.950612                                
 INPUT CARD>H 1.0           0.000000   -6.288701   -0.950612                                
 INPUT CARD>H 1.0           0.000000    6.836633    0.675481                                
 INPUT CARD>H 1.0           0.000000   -6.836633    0.675481                                
 INPUT CARD>C 6.0           0.000000    0.000000    0.153078                                
 INPUT CARD>C 6.0           0.000000    1.232759   -0.484694                                
 INPUT CARD>C 6.0           0.000000   -1.232759   -0.484694                                
 INPUT CARD>C 6.0           0.000000    2.419726    0.221500                                
 INPUT CARD>C 6.0           0.000000   -2.419726    0.221500                                
 INPUT CARD>C 6.0           0.000000    3.695049   -0.339907                                
 INPUT CARD>C 6.0           0.000000   -3.695049   -0.339907                                
 INPUT CARD>C 6.0           0.000000    4.813065    0.457577                                

 ..... DONE SETTING UP THE RUN .....
 2000000000 WORDS OF MEMORY AVAILABLE

     BASIS OPTIONS
     -------------
     GBASIS=ACCD         IGAUSS=       0      POLAR=NONE    
     NDFUNC=       0     NFFUNC=       0     DIFFSP=       F
     NPFUNC=       0      DIFFS=       F


     RUN TITLE
     ---------
 C3                                                                              

 THE POINT GROUP OF THE MOLECULE IS C1      
 THE ORDER OF THE PRINCIPAL AXIS IS     0

 ATOM      ATOMIC                      COORDINATES (BOHR)
           CHARGE         X                   Y                   Z
 H           1.0     0.0000000000        0.0000000000        2.3456941918
 H           1.0     0.0000000000        2.3869053362       -2.9661592638
 H           1.0     0.0000000000       -2.3869053362       -2.9661592638
 H           1.0     0.0000000000        4.4485623737        2.4712286892
 H           1.0     0.0000000000       -4.4485623737        2.4712286892
 H           1.0     0.0000000000        7.1904962004       -2.6821901396
 H           1.0     0.0000000000       -7.1904962004       -2.6821901396
 H           1.0     0.0000000000        8.8714868350        2.9030783206
 H           1.0     0.0000000000       -8.8714868350        2.9030783206
 H           1.0     0.0000000000       11.8839217087       -1.7963962006
 H           1.0     0.0000000000      -11.8839217087       -1.7963962006
 H           1.0     0.0000000000       12.9193630486        1.2764739999
 H           1.0     0.0000000000      -12.9193630486        1.2764739999
 C           6.0     0.0000000000        0.0000000000        0.2892754747
 C           6.0     0.0000000000        2.3295767189       -0.9159388479
 C           6.0     0.0000000000       -2.3295767189       -0.9159388479
 C           6.0     0.0000000000        4.5726191054        0.4185743063
 C           6.0     0.0000000000       -4.5726191054        0.4185743063
 C           6.0     0.0000000000        6.9826301212       -0.6423310913
 C           6.0     0.0000000000       -6.9826301212       -0.6423310913
 C           6.0     0.0000000000        9.0953740111        0.8646951483
 C           6.0     0.0000000000       -9.0953740111        0.8646951483
 N           7.0     0.0000000000       11.4667420202        0.0576120762
 N           7.0     0.0000000000      -11.4667420202        0.0576120762

          INTERNUCLEAR DISTANCES (ANGS.)
          ------------------------------

                    H              H              H              H         

  1  H               0.0000000      3.0816615      3.0816615      2.3550151 *  
  2  H               3.0816615      0.0000000      2.5261920 *    3.0772291    
  3  H               3.0816615      2.5261920 *    0.0000000      4.6220174    
  4  H               2.3550151 *    3.0772291      4.6220174      0.0000000    
  5  H               2.3550151 *    4.6220174      3.0772291      4.7081560    
  6  H               4.6429946      2.5463888 *    5.0703703      3.0890505    
  7  H               4.6429946      5.0703703      2.5463888 *    6.7358550    
  8  H               4.7038457      4.6283425      6.7186621      2.3516410 *  
  9  H               4.7038457      6.7186621      4.6283425      7.0523705    
 10  H               6.6597437      5.0635839      7.5771244      4.5366632    
 11  H               6.6597437      7.5771244      5.0635839      8.9329549    
 12  H               6.8600064      6.0087279      8.4051238      4.5269220    
 13  H               6.8600064      8.4051238      6.0087279      9.2124314    
 14  C               1.0882100 *    2.1361446 *    2.1361446 *    2.6219986 *  
 15  C               2.1210159 *    1.0853541 *    2.7214638 *    2.1142604 *  
 16  C               2.1210159 *    2.7214638 *    1.0853541 *    4.0097557    
 17  C               2.6258411 *    2.1321159 *    4.0952781      1.0882000 *  
 18  C               2.6258411 *    4.0952781      2.1321159 *    4.8958221    
 19  C               4.0191498      2.7251788 *    5.1083662      2.1243520 *  
 20  C               4.0191498      5.1083662      2.7251788 *    6.2694980    
 21  C               4.8764534      4.0880098      6.4054099      2.6017988 *  
 22  C               4.8764534      6.4054099      4.0880098      7.2173872    
 23  N               6.1875619      5.0642740      7.5036277      3.9273506    
 24  N               6.1875619      7.5036277      5.0642740      8.5183149    

                    H              H              H              H         

  1  H               2.3550151 *    4.6429946      4.6429946      4.7038457    
  2  H               4.6220174      2.5463888 *    5.0703703      4.6283425    
  3  H               3.0772291      5.0703703      2.5463888 *    6.7186621    
  4  H               4.7081560      3.0890505      6.7358550      2.3516410 *  
  5  H               0.0000000      6.7358550      3.0890505      7.0523705    
  6  H               6.7358550      0.0000000      7.6100940      3.0865577    
  7  H               3.0890505      7.6100940      0.0000000      8.9988536    
  8  H               7.0523705      3.0865577      8.9988536      0.0000000    
  9  H               2.3516410 *    8.9988536      3.0865577      9.3891780    
 10  H               8.9329549      2.5275000 *   10.1046261      2.9539196 *  
 11  H               4.5366632     10.1046261      2.5275000 *   11.2613102    
 12  H               9.2124314      3.6849488     10.8459065      2.3085198 *  
 13  H               4.5269220     10.8459065      3.6849488     11.5633037    
 14  C               2.6219986 *    4.1171501      4.1171501      4.8941099    
 15  C               4.0097557      2.7368330 *    5.1237758      4.0085475    
 16  C               2.1142604 *    5.1237758      2.7368330 *    6.2623990    
 17  C               4.8958221      2.1474441 *    6.4374064      2.6274609 *  
 18  C               1.0882000 *    6.4374064      2.1474441 *    7.2347790    
 19  C               6.2694980      1.0850370 *    7.5773772      2.1257984 *  
 20  C               2.1243520 *    7.5773772      1.0850370 *    8.5968578    
 21  C               7.2173872      2.1304859 *    8.8201318      1.0851529 *  
 22  C               2.6017988 *    8.8201318      2.1304859 *    9.5686470    
 23  N               8.5183149      2.6875117 *    9.9788723      2.0379871 *  
 24  N               3.9273506      9.9788723      2.6875117 *   10.8673506    

                    H              H              H              H         

  1  H               4.7038457      6.6597437      6.6597437      6.8600064    
  2  H               6.7186621      5.0635839      7.5771244      6.0087279    
  3  H               4.6283425      7.5771244      5.0635839      8.4051238    
  4  H               7.0523705      4.5366632      8.9329549      4.5269220    
  5  H               2.3516410 *    8.9329549      4.5366632      9.2124314    
  6  H               8.9988536      2.5275000 *   10.1046261      3.6849488    
  7  H               3.0865577     10.1046261      2.5275000 *   10.8459065    
  8  H               9.3891780      2.9539196 *   11.2613102      2.3085198 *  
  9  H               0.0000000     11.2613102      2.9539196 *   11.5633037    
 10  H              11.2613102      0.0000000     12.5774020      1.7159277 *  
 11  H               2.9539196 *   12.5774020      0.0000000     13.2256785    
 12  H              11.5633037      1.7159277 *   13.2256785      0.0000000    
 13  H               2.3085198 *   13.2256785      1.7159277 *   13.6732660    
 14  C               4.8941099      6.3848173      6.3848173      6.8565630    
 15  C               6.2623990      5.0773644      7.5358769      5.7227100    
 16  C               4.0085475      7.5358769      5.0773644      8.1523673    
 17  C               7.2347790      4.0426247      8.7869532      4.4401764    
 18  C               2.6274609 *    8.7869532      4.0426247      9.2674851    
 19  C               8.5968578      2.6645809 *   10.0024109      3.3016000    
 20  C               2.1257984 *   10.0024109      2.6645809 *   10.5805169    
 21  C               9.5686470      2.0397299 *   11.1907196      2.0352665 *  
 22  C               1.0851529 *   11.1907196      2.0397299 *   11.6517357    
 23  N              10.8673506      1.0056297 *   12.3955277      1.0034479 *  
 24  N               2.0379871 *   12.3955277      1.0056297 *   12.9206809    

                    H              C              C              C         

  1  H               6.8600064      1.0882100 *    2.1210159 *    2.1210159 *  
  2  H               8.4051238      2.1361446 *    1.0853541 *    2.7214638 *  
  3  H               6.0087279      2.1361446 *    2.7214638 *    1.0853541 *  
  4  H               9.2124314      2.6219986 *    2.1142604 *    4.0097557    
  5  H               4.5269220      2.6219986 *    4.0097557      2.1142604 *  
  6  H              10.8459065      4.1171501      2.7368330 *    5.1237758    
  7  H               3.6849488      4.1171501      5.1237758      2.7368330 *  
  8  H              11.5633037      4.8941099      4.0085475      6.2623990    
  9  H               2.3085198 *    4.8941099      6.2623990      4.0085475    
 10  H              13.2256785      6.3848173      5.0773644      7.5358769    
 11  H               1.7159277 *    6.3848173      7.5358769      5.0773644    
 12  H              13.6732660      6.8565630      5.7227100      8.1523673    
 13  H               0.0000000      6.8565630      8.1523673      5.7227100    
 14  C               6.8565630      0.0000000      1.3879654 *    1.3879654 *  
 15  C               8.1523673      1.3879654 *    0.0000000      2.4655180 *  
 16  C               5.7227100      1.3879654 *    2.4655180 *    0.0000000    
 17  C               9.2674851      2.4206932 *    1.3811592 *    3.7201286    
 18  C               4.4401764      2.4206932 *    3.7201286      1.3811592 *  
 19  C              10.5805169      3.7277904      2.4665432 *    4.9299346    
 20  C               3.3016000      3.7277904      4.9299346      2.4665432 *  
 21  C              11.6517357      4.8226875      3.7022244      6.1188122    
 22  C               2.0352665 *    4.8226875      6.1188122      3.7022244    
 23  N              12.9206809      6.0691772      4.8625484      7.3188526    
 24  N               1.0034479 *    6.0691772      7.3188526      4.8625484    

                    C              C              C              C         

  1  H               2.6258411 *    2.6258411 *    4.0191498      4.0191498    
  2  H               2.1321159 *    4.0952781      2.7251788 *    5.1083662    
  3  H               4.0952781      2.1321159 *    5.1083662      2.7251788 *  
  4  H               1.0882000 *    4.8958221      2.1243520 *    6.2694980    
  5  H               4.8958221      1.0882000 *    6.2694980      2.1243520 *  
  6  H               2.1474441 *    6.4374064      1.0850370 *    7.5773772    
  7  H               6.4374064      2.1474441 *    7.5773772      1.0850370 *  
  8  H               2.6274609 *    7.2347790      2.1257984 *    8.5968578    
  9  H               7.2347790      2.6274609 *    8.5968578      2.1257984 *  
 10  H               4.0426247      8.7869532      2.6645809 *   10.0024109    
 11  H               8.7869532      4.0426247     10.0024109      2.6645809 *  
 12  H               4.4401764      9.2674851      3.3016000     10.5805169    
 13  H               9.2674851      4.4401764     10.5805169      3.3016000    
 14  C               2.4206932 *    2.4206932 *    3.7277904      3.7277904    
 15  C               1.3811592 *    3.7201286      2.4665432 *    4.9299346    
 16  C               3.7201286      1.3811592 *    4.9299346      2.4665432 *  
 17  C               0.0000000      4.8394520      1.3934226 *    6.1404927    
 18  C               4.8394520      0.0000000      6.1404927      1.3934226 *  
 19  C               1.3934226 *    6.1404927      0.0000000      7.3900980    
 20  C               6.1404927      1.3934226 *    7.3900980      0.0000000    
 21  C               2.4049540 *    7.2366427      1.3732955 *    8.5454072    
 22  C               7.2366427      2.4049540 *    8.5454072      1.3732955 *  
 23  N               3.6532101      8.4898141      2.4016242 *    9.7700116    
 24  N               8.4898141      3.6532101      9.7700116      2.4016242 *  

                    C              C              N              N         

  1  H               4.8764534      4.8764534      6.1875619      6.1875619    
  2  H               4.0880098      6.4054099      5.0642740      7.5036277    
  3  H               6.4054099      4.0880098      7.5036277      5.0642740    
  4  H               2.6017988 *    7.2173872      3.9273506      8.5183149    
  5  H               7.2173872      2.6017988 *    8.5183149      3.9273506    
  6  H               2.1304859 *    8.8201318      2.6875117 *    9.9788723    
  7  H               8.8201318      2.1304859 *    9.9788723      2.6875117 *  
  8  H               1.0851529 *    9.5686470      2.0379871 *   10.8673506    
  9  H               9.5686470      1.0851529 *   10.8673506      2.0379871 *  
 10  H               2.0397299 *   11.1907196      1.0056297 *   12.3955277    
 11  H              11.1907196      2.0397299 *   12.3955277      1.0056297 *  
 12  H               2.0352665 *   11.6517357      1.0034479 *   12.9206809    
 13  H              11.6517357      2.0352665 *   12.9206809      1.0034479 *  
 14  C               4.8226875      4.8226875      6.0691772      6.0691772    
 15  C               3.7022244      6.1188122      4.8625484      7.3188526    
 16  C               6.1188122      3.7022244      7.3188526      4.8625484    
 17  C               2.4049540 *    7.2366427      3.6532101      8.4898141    
 18  C               7.2366427      2.4049540 *    8.4898141      3.6532101    
 19  C               1.3732955 *    8.5454072      2.4016242 *    9.7700116    
 20  C               8.5454072      1.3732955 *    9.7700116      2.4016242 *  
 21  C               0.0000000      9.6261300      1.3255620 *   10.8893826    
 22  C               9.6261300      0.0000000     10.8893826      1.3255620 *  
 23  N               1.3255620 *   10.8893826      0.0000000     12.1358780    
 24  N              10.8893826      1.3255620 *   12.1358780      0.0000000    

  * ... LESS THAN  3.000


     ATOMIC BASIS SET
     ----------------
 THE CONTRACTED PRIMITIVE FUNCTIONS HAVE BEEN UNNORMALIZED
 THE CONTRACTED BASIS FUNCTIONS ARE NOW NORMALIZED TO UNITY

  SHELL TYPE  PRIMITIVE        EXPONENT          CONTRACTION COEFFICIENT(S)

 H         

      1   S       1            13.0100000    0.033498726390
      1   S       2             1.9620000    0.234800801174
      1   S       3             0.4446000    0.813682957883

      2   S       4             0.1220000    1.000000000000

      3   P       5             0.7270000    1.000000000000

      4   S       6             0.0297400    1.000000000000

      5   P       7             0.1410000    1.000000000000

 H         

      6   S       8            13.0100000    0.033498726390
      6   S       9             1.9620000    0.234800801174
      6   S      10             0.4446000    0.813682957883

      7   S      11             0.1220000    1.000000000000

      8   P      12             0.7270000    1.000000000000

      9   S      13             0.0297400    1.000000000000

     10   P      14             0.1410000    1.000000000000

 H         

     11   S      15            13.0100000    0.033498726390
     11   S      16             1.9620000    0.234800801174
     11   S      17             0.4446000    0.813682957883

     12   S      18             0.1220000    1.000000000000

     13   P      19             0.7270000    1.000000000000

     14   S      20             0.0297400    1.000000000000

     15   P      21             0.1410000    1.000000000000

 H         

     16   S      22            13.0100000    0.033498726390
     16   S      23             1.9620000    0.234800801174
     16   S      24             0.4446000    0.813682957883

     17   S      25             0.1220000    1.000000000000

     18   P      26             0.7270000    1.000000000000

     19   S      27             0.0297400    1.000000000000

     20   P      28             0.1410000    1.000000000000

 H         

     21   S      29            13.0100000    0.033498726390
     21   S      30             1.9620000    0.234800801174
     21   S      31             0.4446000    0.813682957883

     22   S      32             0.1220000    1.000000000000

     23   P      33             0.7270000    1.000000000000

     24   S      34             0.0297400    1.000000000000

     25   P      35             0.1410000    1.000000000000

 H         

     26   S      36            13.0100000    0.033498726390
     26   S      37             1.9620000    0.234800801174
     26   S      38             0.4446000    0.813682957883

     27   S      39             0.1220000    1.000000000000

     28   P      40             0.7270000    1.000000000000

     29   S      41             0.0297400    1.000000000000

     30   P      42             0.1410000    1.000000000000

 H         

     31   S      43            13.0100000    0.033498726390
     31   S      44             1.9620000    0.234800801174
     31   S      45             0.4446000    0.813682957883

     32   S      46             0.1220000    1.000000000000

     33   P      47             0.7270000    1.000000000000

     34   S      48             0.0297400    1.000000000000

     35   P      49             0.1410000    1.000000000000

 H         

     36   S      50            13.0100000    0.033498726390
     36   S      51             1.9620000    0.234800801174
     36   S      52             0.4446000    0.813682957883

     37   S      53             0.1220000    1.000000000000

     38   P      54             0.7270000    1.000000000000

     39   S      55             0.0297400    1.000000000000

     40   P      56             0.1410000    1.000000000000

 H         

     41   S      57            13.0100000    0.033498726390
     41   S      58             1.9620000    0.234800801174
     41   S      59             0.4446000    0.813682957883

     42   S      60             0.1220000    1.000000000000

     43   P      61             0.7270000    1.000000000000

     44   S      62             0.0297400    1.000000000000

     45   P      63             0.1410000    1.000000000000

 H         

     46   S      64            13.0100000    0.033498726390
     46   S      65             1.9620000    0.234800801174
     46   S      66             0.4446000    0.813682957883

     47   S      67             0.1220000    1.000000000000

     48   P      68             0.7270000    1.000000000000

     49   S      69             0.0297400    1.000000000000

     50   P      70             0.1410000    1.000000000000

 H         

     51   S      71            13.0100000    0.033498726390
     51   S      72             1.9620000    0.234800801174
     51   S      73             0.4446000    0.813682957883

     52   S      74             0.1220000    1.000000000000

     53   P      75             0.7270000    1.000000000000

     54   S      76             0.0297400    1.000000000000

     55   P      77             0.1410000    1.000000000000

 H         

     56   S      78            13.0100000    0.033498726390
     56   S      79             1.9620000    0.234800801174
     56   S      80             0.4446000    0.813682957883

     57   S      81             0.1220000    1.000000000000

     58   P      82             0.7270000    1.000000000000

     59   S      83             0.0297400    1.000000000000

     60   P      84             0.1410000    1.000000000000

 H         

     61   S      85            13.0100000    0.033498726390
     61   S      86             1.9620000    0.234800801174
     61   S      87             0.4446000    0.813682957883

     62   S      88             0.1220000    1.000000000000

     63   P      89             0.7270000    1.000000000000

     64   S      90             0.0297400    1.000000000000

     65   P      91             0.1410000    1.000000000000

 C         

     66   S      92          6665.0000000    0.000691583963
     66   S      93          1000.0000000    0.005325796153
     66   S      94           228.0000000    0.027060721042
     66   S      95            64.7100000    0.101656846141
     66   S      96            21.0600000    0.274574823617
     66   S      97             7.4950000    0.448294318924
     66   S      98             2.7970000    0.284902610715
     66   S      99             0.5215000    0.015194859206

     67   S     100          6665.0000000   -0.000293269653
     67   S     101          1000.0000000   -0.002318035474
     67   S     102           228.0000000   -0.011499786039
     67   S     103            64.7100000   -0.046826727010
     67   S     104            21.0600000   -0.128466168750
     67   S     105             7.4950000   -0.301266272463
     67   S     106             2.7970000   -0.255630702330
     67   S     107             0.5215000    1.093793361012

     68   S     108             0.1596000    1.000000000000

     69   P     109             9.4390000    0.056979251590
     69   P     110             2.0020000    0.313207211501
     69   P     111             0.5456000    0.760376741738

     70   P     112             0.1517000    1.000000000000

     71   D     113             0.5500000    1.000000000000

     72   S     114             0.0469000    1.000000000000

     73   P     115             0.0404100    1.000000000000

     74   D     116             0.1510000    1.000000000000

 C         

     75   S     117          6665.0000000    0.000691583963
     75   S     118          1000.0000000    0.005325796153
     75   S     119           228.0000000    0.027060721042
     75   S     120            64.7100000    0.101656846141
     75   S     121            21.0600000    0.274574823617
     75   S     122             7.4950000    0.448294318924
     75   S     123             2.7970000    0.284902610715
     75   S     124             0.5215000    0.015194859206

     76   S     125          6665.0000000   -0.000293269653
     76   S     126          1000.0000000   -0.002318035474
     76   S     127           228.0000000   -0.011499786039
     76   S     128            64.7100000   -0.046826727010
     76   S     129            21.0600000   -0.128466168750
     76   S     130             7.4950000   -0.301266272463
     76   S     131             2.7970000   -0.255630702330
     76   S     132             0.5215000    1.093793361012

     77   S     133             0.1596000    1.000000000000

     78   P     134             9.4390000    0.056979251590
     78   P     135             2.0020000    0.313207211501
     78   P     136             0.5456000    0.760376741738

     79   P     137             0.1517000    1.000000000000

     80   D     138             0.5500000    1.000000000000

     81   S     139             0.0469000    1.000000000000

     82   P     140             0.0404100    1.000000000000

     83   D     141             0.1510000    1.000000000000

 C         

     84   S     142          6665.0000000    0.000691583963
     84   S     143          1000.0000000    0.005325796153
     84   S     144           228.0000000    0.027060721042
     84   S     145            64.7100000    0.101656846141
     84   S     146            21.0600000    0.274574823617
     84   S     147             7.4950000    0.448294318924
     84   S     148             2.7970000    0.284902610715
     84   S     149             0.5215000    0.015194859206

     85   S     150          6665.0000000   -0.000293269653
     85   S     151          1000.0000000   -0.002318035474
     85   S     152           228.0000000   -0.011499786039
     85   S     153            64.7100000   -0.046826727010
     85   S     154            21.0600000   -0.128466168750
     85   S     155             7.4950000   -0.301266272463
     85   S     156             2.7970000   -0.255630702330
     85   S     157             0.5215000    1.093793361012

     86   S     158             0.1596000    1.000000000000

     87   P     159             9.4390000    0.056979251590
     87   P     160             2.0020000    0.313207211501
     87   P     161             0.5456000    0.760376741738

     88   P     162             0.1517000    1.000000000000

     89   D     163             0.5500000    1.000000000000

     90   S     164             0.0469000    1.000000000000

     91   P     165             0.0404100    1.000000000000

     92   D     166             0.1510000    1.000000000000

 C         

     93   S     167          6665.0000000    0.000691583963
     93   S     168          1000.0000000    0.005325796153
     93   S     169           228.0000000    0.027060721042
     93   S     170            64.7100000    0.101656846141
     93   S     171            21.0600000    0.274574823617
     93   S     172             7.4950000    0.448294318924
     93   S     173             2.7970000    0.284902610715
     93   S     174             0.5215000    0.015194859206

     94   S     175          6665.0000000   -0.000293269653
     94   S     176          1000.0000000   -0.002318035474
     94   S     177           228.0000000   -0.011499786039
     94   S     178            64.7100000   -0.046826727010
     94   S     179            21.0600000   -0.128466168750
     94   S     180             7.4950000   -0.301266272463
     94   S     181             2.7970000   -0.255630702330
     94   S     182             0.5215000    1.093793361012

     95   S     183             0.1596000    1.000000000000

     96   P     184             9.4390000    0.056979251590
     96   P     185             2.0020000    0.313207211501
     96   P     186             0.5456000    0.760376741738

     97   P     187             0.1517000    1.000000000000

     98   D     188             0.5500000    1.000000000000

     99   S     189             0.0469000    1.000000000000

    100   P     190             0.0404100    1.000000000000

    101   D     191             0.1510000    1.000000000000

 C         

    102   S     192          6665.0000000    0.000691583963
    102   S     193          1000.0000000    0.005325796153
    102   S     194           228.0000000    0.027060721042
    102   S     195            64.7100000    0.101656846141
    102   S     196            21.0600000    0.274574823617
    102   S     197             7.4950000    0.448294318924
    102   S     198             2.7970000    0.284902610715
    102   S     199             0.5215000    0.015194859206

    103   S     200          6665.0000000   -0.000293269653
    103   S     201          1000.0000000   -0.002318035474
    103   S     202           228.0000000   -0.011499786039
    103   S     203            64.7100000   -0.046826727010
    103   S     204            21.0600000   -0.128466168750
    103   S     205             7.4950000   -0.301266272463
    103   S     206             2.7970000   -0.255630702330
    103   S     207             0.5215000    1.093793361012

    104   S     208             0.1596000    1.000000000000

    105   P     209             9.4390000    0.056979251590
    105   P     210             2.0020000    0.313207211501
    105   P     211             0.5456000    0.760376741738

    106   P     212             0.1517000    1.000000000000

    107   D     213             0.5500000    1.000000000000

    108   S     214             0.0469000    1.000000000000

    109   P     215             0.0404100    1.000000000000

    110   D     216             0.1510000    1.000000000000

 C         

    111   S     217          6665.0000000    0.000691583963
    111   S     218          1000.0000000    0.005325796153
    111   S     219           228.0000000    0.027060721042
    111   S     220            64.7100000    0.101656846141
    111   S     221            21.0600000    0.274574823617
    111   S     222             7.4950000    0.448294318924
    111   S     223             2.7970000    0.284902610715
    111   S     224             0.5215000    0.015194859206

    112   S     225          6665.0000000   -0.000293269653
    112   S     226          1000.0000000   -0.002318035474
    112   S     227           228.0000000   -0.011499786039
    112   S     228            64.7100000   -0.046826727010
    112   S     229            21.0600000   -0.128466168750
    112   S     230             7.4950000   -0.301266272463
    112   S     231             2.7970000   -0.255630702330
    112   S     232             0.5215000    1.093793361012

    113   S     233             0.1596000    1.000000000000

    114   P     234             9.4390000    0.056979251590
    114   P     235             2.0020000    0.313207211501
    114   P     236             0.5456000    0.760376741738

    115   P     237             0.1517000    1.000000000000

    116   D     238             0.5500000    1.000000000000

    117   S     239             0.0469000    1.000000000000

    118   P     240             0.0404100    1.000000000000

    119   D     241             0.1510000    1.000000000000

 C         

    120   S     242          6665.0000000    0.000691583963
    120   S     243          1000.0000000    0.005325796153
    120   S     244           228.0000000    0.027060721042
    120   S     245            64.7100000    0.101656846141
    120   S     246            21.0600000    0.274574823617
    120   S     247             7.4950000    0.448294318924
    120   S     248             2.7970000    0.284902610715
    120   S     249             0.5215000    0.015194859206

    121   S     250          6665.0000000   -0.000293269653
    121   S     251          1000.0000000   -0.002318035474
    121   S     252           228.0000000   -0.011499786039
    121   S     253            64.7100000   -0.046826727010
    121   S     254            21.0600000   -0.128466168750
    121   S     255             7.4950000   -0.301266272463
    121   S     256             2.7970000   -0.255630702330
    121   S     257             0.5215000    1.093793361012

    122   S     258             0.1596000    1.000000000000

    123   P     259             9.4390000    0.056979251590
    123   P     260             2.0020000    0.313207211501
    123   P     261             0.5456000    0.760376741738

    124   P     262             0.1517000    1.000000000000

    125   D     263             0.5500000    1.000000000000

    126   S     264             0.0469000    1.000000000000

    127   P     265             0.0404100    1.000000000000

    128   D     266             0.1510000    1.000000000000

 C         

    129   S     267          6665.0000000    0.000691583963
    129   S     268          1000.0000000    0.005325796153
    129   S     269           228.0000000    0.027060721042
    129   S     270            64.7100000    0.101656846141
    129   S     271            21.0600000    0.274574823617
    129   S     272             7.4950000    0.448294318924
    129   S     273             2.7970000    0.284902610715
    129   S     274             0.5215000    0.015194859206

    130   S     275          6665.0000000   -0.000293269653
    130   S     276          1000.0000000   -0.002318035474
    130   S     277           228.0000000   -0.011499786039
    130   S     278            64.7100000   -0.046826727010
    130   S     279            21.0600000   -0.128466168750
    130   S     280             7.4950000   -0.301266272463
    130   S     281             2.7970000   -0.255630702330
    130   S     282             0.5215000    1.093793361012

    131   S     283             0.1596000    1.000000000000

    132   P     284             9.4390000    0.056979251590
    132   P     285             2.0020000    0.313207211501
    132   P     286             0.5456000    0.760376741738

    133   P     287             0.1517000    1.000000000000

    134   D     288             0.5500000    1.000000000000

    135   S     289             0.0469000    1.000000000000

    136   P     290             0.0404100    1.000000000000

    137   D     291             0.1510000    1.000000000000

 C         

    138   S     292          6665.0000000    0.000691583963
    138   S     293          1000.0000000    0.005325796153
    138   S     294           228.0000000    0.027060721042
    138   S     295            64.7100000    0.101656846141
    138   S     296            21.0600000    0.274574823617
    138   S     297             7.4950000    0.448294318924
    138   S     298             2.7970000    0.284902610715
    138   S     299             0.5215000    0.015194859206

    139   S     300          6665.0000000   -0.000293269653
    139   S     301          1000.0000000   -0.002318035474
    139   S     302           228.0000000   -0.011499786039
    139   S     303            64.7100000   -0.046826727010
    139   S     304            21.0600000   -0.128466168750
    139   S     305             7.4950000   -0.301266272463
    139   S     306             2.7970000   -0.255630702330
    139   S     307             0.5215000    1.093793361012

    140   S     308             0.1596000    1.000000000000

    141   P     309             9.4390000    0.056979251590
    141   P     310             2.0020000    0.313207211501
    141   P     311             0.5456000    0.760376741738

    142   P     312             0.1517000    1.000000000000

    143   D     313             0.5500000    1.000000000000

    144   S     314             0.0469000    1.000000000000

    145   P     315             0.0404100    1.000000000000

    146   D     316             0.1510000    1.000000000000

 N         

    147   S     317          9046.0000000    0.000699617413
    147   S     318          1357.0000000    0.005386054630
    147   S     319           309.3000000    0.027391021189
    147   S     320            87.7300000    0.103150591982
    147   S     321            28.5600000    0.278570663317
    147   S     322            10.2100000    0.448294849454
    147   S     323             3.8380000    0.278085928395
    147   S     324             0.7466000    0.015431561233

    148   S     325          9046.0000000   -0.000304990096
    148   S     326          1357.0000000   -0.002408026379
    148   S     327           309.3000000   -0.011944448725
    148   S     328            87.7300000   -0.048925992909
    148   S     329            28.5600000   -0.134472724725
    148   S     330            10.2100000   -0.315112577700
    148   S     331             3.8380000   -0.242857832550
    148   S     332             0.7466000    1.094382206854

    149   S     333             0.2248000    1.000000000000

    150   P     334            13.5500000    0.058905676772
    150   P     335             2.9170000    0.320461106714
    150   P     336             0.7973000    0.753042061792

    151   P     337             0.2185000    1.000000000000

    152   D     338             0.8170000    1.000000000000

    153   S     339             0.0612400    1.000000000000

    154   P     340             0.0561100    1.000000000000

    155   D     341             0.2300000    1.000000000000

 N         

    156   S     342          9046.0000000    0.000699617413
    156   S     343          1357.0000000    0.005386054630
    156   S     344           309.3000000    0.027391021189
    156   S     345            87.7300000    0.103150591982
    156   S     346            28.5600000    0.278570663317
    156   S     347            10.2100000    0.448294849454
    156   S     348             3.8380000    0.278085928395
    156   S     349             0.7466000    0.015431561233

    157   S     350          9046.0000000   -0.000304990096
    157   S     351          1357.0000000   -0.002408026379
    157   S     352           309.3000000   -0.011944448725
    157   S     353            87.7300000   -0.048925992909
    157   S     354            28.5600000   -0.134472724725
    157   S     355            10.2100000   -0.315112577700
    157   S     356             3.8380000   -0.242857832550
    157   S     357             0.7466000    1.094382206854

    158   S     358             0.2248000    1.000000000000

    159   P     359            13.5500000    0.058905676772
    159   P     360             2.9170000    0.320461106714
    159   P     361             0.7973000    0.753042061792

    160   P     362             0.2185000    1.000000000000

    161   D     363             0.8170000    1.000000000000

    162   S     364             0.0612400    1.000000000000

    163   P     365             0.0561100    1.000000000000

    164   D     366             0.2300000    1.000000000000

 TOTAL NUMBER OF BASIS SET SHELLS             =  164
 NUMBER OF CARTESIAN GAUSSIAN BASIS FUNCTIONS =  392
 NOTE: THIS RUN WILL RESTRICT THE MO VARIATION SPACE TO SPHERICAL HARMONICS.
 THE NUMBER OF ORBITALS KEPT IN THE VARIATIONAL SPACE WILL BE PRINTED LATER.
 NUMBER OF ELECTRONS                          =   80
 CHARGE OF MOLECULE                           =    1
 SPIN MULTIPLICITY                            =    1
 NUMBER OF OCCUPIED ORBITALS (ALPHA)          =   40
 NUMBER OF OCCUPIED ORBITALS (BETA )          =   40
 TOTAL NUMBER OF ATOMS                        =   24
 THE NUCLEAR REPULSION ENERGY IS      498.5415513784

     $CONTRL OPTIONS
     ---------------
 SCFTYP=RHF          RUNTYP=ENERGY       EXETYP=RUN     
 MPLEVL=       0     CITYP =NONE         CCTYP =NONE         VBTYP =NONE    
 MULT  =       1     ICHARG=       1     NZVAR =       0     COORD =UNIQUE  
 PP    =NONE         RELWFN=NONE         LOCAL =NONE         NUMGRD=       F
 ISPHER=       1     NOSYM =       0     MAXIT =     100     UNITS =ANGS    
 PLTORB=       F     MOLPLT=       F     AIMPAC=       F     FRIEND=        
 NPRINT=       7     IREST =       0     GEOM  =INPUT   
 NORMF =       0     NORMP =       0     ITOL  =      20     ICUT  =       9
 INTTYP=BEST         GRDTYP=BEST         QMTTOL= 1.0E-06

     $SYSTEM OPTIONS
     ---------------
  REPLICATED MEMORY=  2000000000 WORDS (ON EVERY NODE).
 DISTRIBUTED MEMDDI=           0 MILLION WORDS IN AGGREGATE,
 MEMDDI DISTRIBUTED OVER   8 PROCESSORS IS           0 WORDS/PROCESSOR.
 TOTAL MEMORY REQUESTED ON EACH PROCESSOR=  2000000000 WORDS.
 TIMLIM=      525600.00 MINUTES, OR   365.00 DAYS.
 PARALL= T  BALTYP=  NXTVAL  KDIAG=    0  COREFL= F

          ----------------
          PROPERTIES INPUT
          ----------------

     MOMENTS            FIELD           POTENTIAL          DENSITY
 IEMOM =       1   IEFLD =       0   IEPOT =       0   IEDEN =       0
 WHERE =COMASS     WHERE =NUCLEI     WHERE =NUCLEI     WHERE =NUCLEI  
 OUTPUT=BOTH       OUTPUT=BOTH       OUTPUT=BOTH       OUTPUT=BOTH    
 IEMINT=       0   IEFINT=       0                     IEDINT=       0
                                                       MORB  =       0
          EXTRAPOLATION IN EFFECT
          DIIS IN EFFECT
 ORBITAL PRINTING OPTION: NPREO=   1 392   2   1

     -------------------------------
     INTEGRAL TRANSFORMATION OPTIONS
     -------------------------------
     NWORD  =       0     CUTOFF = 1.0E-09
     MPTRAN =       0     DIRTRF =       T
     AOINTS =DUP     

          ----------------------
          INTEGRAL INPUT OPTIONS
          ----------------------
 NOPK  =       1 NORDER=       0 SCHWRZ=       T

     ------------------------------------------
     THE POINT GROUP IS C1 , NAXIS= 0, ORDER= 1
     ------------------------------------------

 -- VARIATIONAL SPACE WILL BE RESTRICTED TO PURE SPHERICAL HARMONICS ONLY --
 AFTER EXCLUDING CONTAMINANT COMBINATIONS FROM THE CARTESIAN GAUSSIAN BASIS
 SET, THE NUMBER OF SPHERICAL HARMONICS KEPT IN THE VARIATION SPACE IS  370

     DIMENSIONS OF THE SYMMETRY SUBSPACES ARE
 A   =  370

 ..... DONE SETTING UP THE RUN .....
 ON NODE 0, STEP CPU TIME =     0.07 TOTAL CPU TIME =        0.1 (    0.0 MIN)
 TOTAL WALL CLOCK TIME=        0.0 SECONDS, CPU UTILIZATION IS 100.00%

          ********************
          1 ELECTRON INTEGRALS
          ********************
 ...... END OF ONE-ELECTRON INTEGRALS ......
 ON NODE 0, STEP CPU TIME =     0.02 TOTAL CPU TIME =        0.1 (    0.0 MIN)
 TOTAL WALL CLOCK TIME=        0.0 SECONDS, CPU UTILIZATION IS 100.00%

          -------------
          GUESS OPTIONS
          -------------
          GUESS =HUCKEL            NORB  =       0          NORDER=       0
          MIX   =       F          PRTMO =       F          PUNMO =       F
          TOLZ  = 1.0E-08          TOLE  = 1.0E-05
          SYMDEN=       F          PURIFY=       F

 INITIAL GUESS ORBITALS GENERATED BY HUCKEL   ROUTINE.
 HUCKEL GUESS REQUIRES   1137264 WORDS.

 STATISTICS FOR GENERATION OF SYMMETRY ORBITAL -Q- MATRIX
 NUMBER OF CARTESIAN ATOMIC ORBITALS=        392
 NUMBER OF SPHERICAL CONTAMINANTS DROPPED=    22
 NUMBER OF LINEARLY DEPENDENT MOS DROPPED=     0
 TOTAL NUMBER OF MOS IN VARIATION SPACE=     370

                    * * * * * WARNING * * * * *
 POSSIBLE LINEAR DEPENDENCE PROBLEMS DETECTED, INPUT QMTTOL= 1.0E-06,
 WITH     7 OVERLAP EIGENVALUES LYING BETWEEN 1.0E-05 AND QMTTOL.
 IF YOU EXPERIENCE SCF CONVERGENCE DIFFICULTIES WITH THE DENSITY ALMOST BUT
 NOT QUITE CONVERGED, YOU MAY NEED TO LOOSEN -QMTTOL- BY A FACTOR 5 TO 10.

 SYMMETRIES FOR INITIAL GUESS ORBITALS FOLLOW.   BOTH SET(S).
    40 ORBITALS ARE OCCUPIED (   11 CORE ORBITALS).
    12=A       13=A       14=A       15=A       16=A       17=A       18=A   
    19=A       20=A       21=A       22=A       23=A       24=A       25=A   
    26=A       27=A       28=A       29=A       30=A       31=A       32=A   
    33=A       34=A       35=A       36=A       37=A       38=A       39=A   
    40=A       41=A       42=A       43=A       44=A       45=A       46=A   
    47=A       48=A       49=A       50=A   
 ...... END OF INITIAL ORBITAL SELECTION ......
 ON NODE 0, STEP CPU TIME =     0.48 TOTAL CPU TIME =        0.6 (    0.0 MIN)
 TOTAL WALL CLOCK TIME=        4.0 SECONDS, CPU UTILIZATION IS  14.25%

                    ----------------------
                    AO INTEGRAL TECHNOLOGY
                    ----------------------
     S,P,L SHELL ROTATED AXIS INTEGRALS, REPROGRAMMED BY
        KAZUYA ISHIMURA (IMS) AND JOSE SIERRA (SYNSTAR).
     S,P,D,L SHELL ROTATED AXIS INTEGRALS PROGRAMMED BY
        KAZUYA ISHIMURA (INSTITUTE FOR MOLECULAR SCIENCE).
     S,P,D,F,G SHELL TO TOTAL QUARTET ANGULAR MOMENTUM SUM 5,
        ERIC PROGRAM BY GRAHAM FLETCHER (ELORET AND NASA ADVANCED
        SUPERCOMPUTING DIVISION, AMES RESEARCH CENTER).
     S,P,D,F,G,L SHELL GENERAL RYS QUADRATURE PROGRAMMED BY
        MICHEL DUPUIS (PACIFIC NORTHWEST NATIONAL LABORATORY).

          --------------------
          2 ELECTRON INTEGRALS
          --------------------

 DIRECT SCF METHOD SKIPS INTEGRAL STORAGE ON DISK.
 DIRECT TRANSFORMATION SKIPS AO INTEGRAL STORAGE ON DISK.
  ...... END OF TWO-ELECTRON INTEGRALS .....
 ON NODE 0, STEP CPU TIME =     0.00 TOTAL CPU TIME =        0.6 (    0.0 MIN)
 TOTAL WALL CLOCK TIME=        4.0 SECONDS, CPU UTILIZATION IS  14.25%

          --------------------------
                 RHF SCF CALCULATION
          --------------------------

     NUCLEAR ENERGY =       498.5415513784
     MAXIT =  100     NPUNCH=    2
     EXTRAP=T  DAMP=F  SHIFT=F  RSTRCT=F  DIIS=T  DEM=F  SOSCF=F
     DENSITY MATRIX CONV=  2.00E-05
     MEMORY REQUIRED FOR RHF STEP=   1158982 WORDS.

 DIRECT SCF CALCULATION, SCHWRZ=T   FDIFF=T,  DIRTHR=  0.00E+00 NITDIR=10
 SCHWARZ INEQUALITY OVERHEAD:     68090 INTEGRALS, T=        0.01

                                                                                   NONZERO     BLOCKS
 ITER EX DEM     TOTAL ENERGY        E CHANGE  DENSITY CHANGE    DIIS ERROR      INTEGRALS    SKIPPED
          * * *   INITIATING DIIS PROCEDURE   * * *
   1  0  0     -455.7698730015  -455.7698730015   4.918083907   0.424761967      824625036   35112618
   2  1  0     -456.9826747637    -1.2128017622   0.591561766   0.112546530      825129302   35303877
   3  2  0     -457.0707488790    -0.0880741153   0.224112176   0.039144611      817135207   38048391
   4  3  0     -457.1019238640    -0.0311749851   0.214944336   0.009932259      807256850   39853624
   5  4  0     -457.1037434819    -0.0018196179   0.036683908   0.004835573      801241475   40772182
   6  5  0     -457.1040547298    -0.0003112478   0.022052500   0.001871546      783411176   42935356
   7  6  0     -457.1041001272    -0.0000453975   0.008934430   0.000583246      763412679   44854981
   8  7  0     -457.1041105749    -0.0000104477   0.002648114   0.000150026      748822333   46076159
   9  8  0     -457.1041113225    -0.0000007475   0.000473047   0.000036222      722160556   48165715
  10  9  0     -457.1041113723    -0.0000000498   0.000267527   0.000013852      678723809   51113610
  11 10  0     -457.1041113746    -0.0000000023   0.000190242   0.000002100      649090933   53317176
  12 11  0     -457.1041113740     0.0000000006   0.000127669   0.000000792      632263988   54346240
  13 12  0     -457.1041113744    -0.0000000005   0.000189963   0.000000993      631846757   54385791
  14 13  0     -457.1041113681     0.0000000063   0.000122389   0.000000816      651384955   53229933
  15 14  0     -457.1041113652     0.0000000029   0.000078104   0.000000888      637798984   53838150
  16 15  0     -457.1041113642     0.0000000010   0.000136572   0.000001552      619207203   55199784
  17 16  0     -457.1041113613     0.0000000029   0.000109058   0.000001232      626416764   54737710
  18 17  0     -457.1041113625    -0.0000000012   0.000049179   0.000001004      629542259   54645219
  19 18  0     -457.1041113637    -0.0000000012   0.000077274   0.000001064      613737425   55425948
  20 19  0     -457.1041113671    -0.0000000034   0.000039206   0.000000922      609875848   55666709
  21 20  0     -457.1041113777    -0.0000000106   0.000037481   0.000000845      584584751   57343534

          --------------
          DIIS CONVERGED
          --------------
     TIME TO FORM FOCK OPERATORS=     252.5 SECONDS (      12.0 SEC/ITER)
     FOCK TIME ON FIRST ITERATION=      15.6, LAST ITERATION=       9.7
     TIME TO SOLVE SCF EQUATIONS=       2.6 SECONDS (       0.1 SEC/ITER)

 FINAL RHF ENERGY IS     -457.1041113777 AFTER  21 ITERATIONS

          ------------
          EIGENVECTORS
          ------------

                      1          2          3          4          5
                  -15.7334   -15.7334   -11.4500   -11.4500   -11.4040
                     A          A          A          A          A   
    1  H  1  S    0.000002   0.000000   0.000000   0.000011   0.000000
    2  H  1  S   -0.001755  -0.000357   0.000004   0.000936   0.000002
    3  H  1  X    0.000000   0.000000   0.000000   0.000000   0.000000
    4  H  1  Y    0.000006  -0.000031   0.000045   0.000000   0.000087
    5  H  1  Z   -0.000006  -0.000001   0.000000  -0.000007   0.000000
    6  H  1  S   -0.000875  -0.000178  -0.000012  -0.003120   0.000003
    7  H  1  X    0.000000   0.000000   0.000000   0.000000   0.000000
    8  H  1  Y   -0.000094   0.000464   0.003303  -0.000013  -0.002608
    9  H  1  Z    0.000539   0.000110  -0.000001  -0.000314  -0.000001
   10  H  2  S    0.000011   0.000000   0.000005   0.000024   0.000040
   11  H  2  S    0.002679  -0.000049  -0.001495  -0.000335  -0.001977
   12  H  2  X    0.000000   0.000000   0.000000   0.000000   0.000000
   13  H  2  Y   -0.000007   0.000010   0.000049   0.000004  -0.000029
   14  H  2  Z   -0.000014   0.000003   0.000021   0.000022  -0.000042
   15  H  2  S   -0.000474  -0.000287   0.003452   0.000609   0.001304
   16  H  2  X    0.000000   0.000000   0.000000   0.000000   0.000000
   17  H  2  Y    0.000268  -0.000231   0.002168   0.000532  -0.002036
   18  H  2  Z    0.000725  -0.000055  -0.000287   0.000020  -0.000908
   19  H  3  S    0.000010   0.000004  -0.000005   0.000024  -0.000040
   20  H  3  S    0.002447   0.001092   0.001492  -0.000347   0.001979
   21  H  3  X    0.000000   0.000000   0.000000   0.000000   0.000000
   22  H  3  Y    0.000002   0.000012   0.000049  -0.000005  -0.000029
   23  H  3  Z   -0.000012  -0.000008  -0.000021   0.000022   0.000042
   24  H  3  S   -0.000549   0.000079  -0.003447   0.000635  -0.001303
   25  H  3  X    0.000000   0.000000   0.000000   0.000000   0.000000
   26  H  3  Y   -0.000157  -0.000317   0.002164  -0.000549  -0.002036
   27  H  3  Z    0.000646   0.000334   0.000287   0.000018   0.000909
   28  H  4  S   -0.000022   0.000003  -0.000018  -0.000002  -0.000194
   29  H  4  S   -0.002665   0.001076   0.001276   0.001514   0.002428
   30  H  4  X    0.000000   0.000000   0.000000   0.000000   0.000000
   31  H  4  Y    0.000050  -0.000033  -0.000004  -0.000029  -0.000023
   32  H  4  Z    0.000018  -0.000018  -0.000013  -0.000027  -0.000086
   33  H  4  S    0.001345  -0.001602   0.000116   0.003693   0.005461
   34  H  4  X    0.000000   0.000000   0.000000   0.000000   0.000000
   35  H  4  Y   -0.000239   0.000313   0.002748   0.001355  -0.001729
   36  H  4  Z    0.000509  -0.000243  -0.000352  -0.000343  -0.000431
   37  H  5  S   -0.000019  -0.000011   0.000018  -0.000002   0.000194
   38  H  5  S   -0.002033  -0.002032  -0.001264   0.001524  -0.002430
   39  H  5  X    0.000000   0.000000   0.000000   0.000000   0.000000
   40  H  5  Y   -0.000033  -0.000050  -0.000003   0.000029  -0.000023
   41  H  5  Z    0.000009   0.000024   0.000013  -0.000027   0.000086
   42  H  5  S    0.000612   0.002000  -0.000087   0.003694  -0.005468
   43  H  5  X    0.000000   0.000000   0.000000   0.000000   0.000000
   44  H  5  Y    0.000098   0.000382   0.002737  -0.001376  -0.001728
   45  H  5  Z    0.000374   0.000422   0.000349  -0.000346   0.000430
   46  H  6  S   -0.000083   0.000037   0.000081   0.000092   0.000042
   47  H  6  S   -0.002869   0.001372   0.001948   0.002480   0.000871
   48  H  6  X    0.000000   0.000000   0.000000   0.000000   0.000000
   49  H  6  Y   -0.000002   0.000001   0.000038   0.000031  -0.000033
   50  H  6  Z    0.000000  -0.000003   0.000106   0.000106  -0.000068
   51  H  6  S   -0.000504   0.000721  -0.001316   0.000846  -0.001573
   52  H  6  X    0.000000   0.000000   0.000000   0.000000   0.000000
   53  H  6  Y    0.000423  -0.000243   0.001832   0.001261  -0.000312
   54  H  6  Z   -0.000623   0.000334   0.000889   0.000972  -0.000166
   55  H  7  S   -0.000062  -0.000066  -0.000081   0.000093  -0.000042
   56  H  7  S   -0.002105  -0.002384  -0.001929   0.002495  -0.000873
   57  H  7  X    0.000000   0.000000   0.000000   0.000000   0.000000
   58  H  7  Y    0.000001   0.000002   0.000038  -0.000032  -0.000033
   59  H  7  Z   -0.000001   0.000002  -0.000105   0.000107   0.000068
   60  H  7  S   -0.000182  -0.000861   0.001323   0.000835   0.001576
   61  H  7  X    0.000000   0.000000   0.000000   0.000000   0.000000
   62  H  7  Y   -0.000294  -0.000389   0.001822  -0.001275  -0.000311
   63  H  7  Z   -0.000443  -0.000551  -0.000882   0.000979   0.000166
   64  H  8  S   -0.000221   0.000146   0.000285   0.000280   0.000039
   65  H  8  S    0.003388  -0.001949   0.002232   0.002772  -0.004157
   66  H  8  X    0.000000   0.000000   0.000000   0.000000   0.000000
   67  H  8  Y   -0.000032   0.000025  -0.000014  -0.000015  -0.000093
   68  H  8  Z    0.000118  -0.000081   0.000066   0.000079  -0.000031
   69  H  8  S   -0.000304   0.000238  -0.001577  -0.001872  -0.001031
   70  H  8  X    0.000000   0.000000   0.000000   0.000000   0.000000
   71  H  8  Y    0.000294  -0.000195   0.001756   0.001378  -0.000552
   72  H  8  Z   -0.001110   0.000622  -0.000817  -0.000946   0.001211
   73  H  9  S   -0.000147  -0.000221  -0.000283   0.000283  -0.000039
   74  H  9  S    0.002357   0.003118  -0.002210   0.002789   0.004163
   75  H  9  X    0.000000   0.000000   0.000000   0.000000   0.000000
   76  H  9  Y    0.000019   0.000036  -0.000014   0.000015  -0.000093
   77  H  9  Z    0.000077   0.000120  -0.000065   0.000080   0.000032
   78  H  9  S   -0.000187  -0.000338   0.001562  -0.001884   0.001033
   79  H  9  X    0.000000   0.000000   0.000000   0.000000   0.000000
   80  H  9  Y   -0.000194  -0.000294   0.001746  -0.001391  -0.000552
   81  H  9  Z   -0.000779  -0.001006   0.000810  -0.000952  -0.001213
   82  H 10  S    0.000177  -0.000118  -0.000137  -0.000138   0.000015
   83  H 10  S    0.002628  -0.001652  -0.000751  -0.000871   0.001720
   84  H 10  X    0.000000   0.000000   0.000000   0.000000   0.000000
   85  H 10  Y    0.000022  -0.000016   0.000003   0.000002   0.000026
   86  H 10  Z   -0.000235   0.000158   0.000160   0.000163  -0.000015
   87  H 10  S   -0.000622   0.000342  -0.000407  -0.000891  -0.000330
   88  H 10  X    0.000000   0.000000   0.000000   0.000000   0.000000
   89  H 10  Y   -0.000171   0.000135   0.000486   0.000379  -0.000249
   90  H 10  Z    0.000767  -0.000492  -0.000121  -0.000173   0.000512
   91  H 11  S    0.000117   0.000178   0.000136  -0.000139  -0.000015
   92  H 11  S    0.001773   0.002548   0.000744  -0.000877  -0.001721
   93  H 11  X    0.000000   0.000000   0.000000   0.000000   0.000000
   94  H 11  Y   -0.000014  -0.000023   0.000003  -0.000002   0.000026
   95  H 11  Z   -0.000155  -0.000238  -0.000159   0.000165   0.000015
   96  H 11  S   -0.000439  -0.000557   0.000400  -0.000894   0.000330
   97  H 11  X    0.000000   0.000000   0.000000   0.000000   0.000000
   98  H 11  Y    0.000104   0.000191   0.000483  -0.000383  -0.000250
   99  H 11  Z    0.000514   0.000752   0.000119  -0.000174  -0.000513
  100  H 12  S    0.000118  -0.000080  -0.000182  -0.000163  -0.000008
  101  H 12  S    0.003434  -0.002061  -0.000057   0.000580   0.000481
  102  H 12  X    0.000000   0.000000   0.000000   0.000000   0.000000
  103  H 12  Y    0.000182  -0.000117  -0.000128  -0.000140  -0.000002
  104  H 12  Z    0.000190  -0.000128  -0.000097  -0.000105   0.000011
  105  H 12  S   -0.000656   0.000405  -0.000729  -0.000529   0.000463
  106  H 12  X    0.000000   0.000000   0.000000   0.000000   0.000000
  107  H 12  Y   -0.000807   0.000461  -0.000004  -0.000093  -0.000219
  108  H 12  Z   -0.000711   0.000422  -0.000026  -0.000054  -0.000016
  109  H 13  S    0.000077   0.000119   0.000180  -0.000164   0.000008
  110  H 13  S    0.002356   0.003238   0.000061   0.000580  -0.000481
  111  H 13  X    0.000000   0.000000   0.000000   0.000000   0.000000
  112  H 13  Y   -0.000122  -0.000179  -0.000127   0.000141  -0.000002
  113  H 13  Z    0.000125   0.000192   0.000096  -0.000106  -0.000011
  114  H 13  S   -0.000446  -0.000629   0.000725  -0.000534  -0.000463
  115  H 13  X    0.000000   0.000000   0.000000   0.000000   0.000000
  116  H 13  Y    0.000563   0.000740  -0.000003   0.000093  -0.000219
  117  H 13  Z   -0.000489  -0.000666   0.000026  -0.000054   0.000016
  118  C 14  S    0.000043   0.000009  -0.000001  -0.000191   0.000001
  119  C 14  S    0.000073   0.000015  -0.000001  -0.000274   0.000000
  120  C 14  S   -0.000920  -0.000187   0.000069   0.018174  -0.000001
  121  C 14  X    0.000000   0.000000   0.000000   0.000000   0.000000
  122  C 14  Y   -0.000001   0.000004  -0.000023   0.000000   0.000137
  123  C 14  Z   -0.000005  -0.000001   0.000000   0.000031   0.000000
  124  C 14  X    0.000000   0.000000   0.000000   0.000000   0.000000
  125  C 14  Y    0.000192  -0.000943   0.053532  -0.000208  -0.052437
  126  C 14  Z    0.001191   0.000242  -0.000034  -0.008816  -0.000002
  127  C 14 XX    0.000001   0.000000   0.000000  -0.000022   0.000000
  128  C 14 YY   -0.000005  -0.000001   0.000000   0.000018   0.000000
  129  C 14 ZZ    0.000004   0.000001   0.000000   0.000004   0.000000
  130  C 14 XY    0.000000   0.000000   0.000000   0.000000   0.000000
  131  C 14 XZ    0.000000   0.000000   0.000000   0.000000   0.000000
  132  C 14 YZ   -0.000001   0.000006  -0.000062   0.000000   0.000027
  133  C 14  S    0.008972   0.001825   0.000008   0.002114   0.000011
  134  C 14  X    0.000000   0.000000   0.000000   0.000000   0.000000
  135  C 14  Y    0.001798  -0.008844  -0.009396   0.000037  -0.031674
  136  C 14  Z   -0.003680  -0.000749   0.000006   0.001466  -0.000006
  137  C 14 XX    0.000251   0.000051   0.000000   0.000046   0.000000
  138  C 14 YY   -0.000515  -0.000105  -0.000008  -0.002026   0.000001
  139  C 14 ZZ    0.000264   0.000054   0.000008   0.001980   0.000000
  140  C 14 XY    0.000000   0.000000   0.000000   0.000000   0.000000
  141  C 14 XZ    0.000000   0.000000   0.000000   0.000000   0.000000
  142  C 14 YZ   -0.000033   0.000162  -0.016133   0.000063   0.013523
  143  C 15  S   -0.000018  -0.000008  -0.000018  -0.000143  -0.007252
  144  C 15  S   -0.000026  -0.000013  -0.000028  -0.000238  -0.000070
  145  C 15  S    0.002720   0.000542  -0.003523   0.015426  -0.000669
  146  C 15  X    0.000000   0.000000   0.000000   0.000000   0.000000
  147  C 15  Y    0.000011  -0.000016  -0.000068  -0.000047  -0.000043
  148  C 15  Z    0.000008  -0.000007  -0.000028  -0.000047  -0.000077
  149  C 15  X    0.000000   0.000000   0.000000   0.000000   0.000000
  150  C 15  Y    0.000400  -0.000473   0.052371   0.015042  -0.052862
  151  C 15  Z    0.002431   0.000074   0.000285   0.007401  -0.003180
  152  C 15 XX   -0.000024  -0.000010   0.000026   0.000012  -0.000096
  153  C 15 YY    0.000008   0.000013  -0.000014   0.000002  -0.000001
  154  C 15 ZZ    0.000015  -0.000003  -0.000012  -0.000014   0.000097
  155  C 15 XY    0.000000   0.000000   0.000000   0.000000   0.000000
  156  C 15 XZ    0.000000   0.000000   0.000000   0.000000   0.000000
  157  C 15 YZ    0.000020  -0.000009   0.000051  -0.000005  -0.000029
  158  C 15  S   -0.010803   0.000727   0.010851   0.004934  -0.016196
  159  C 15  X    0.000000   0.000000   0.000000   0.000000   0.000000
  160  C 15  Y   -0.001613   0.014188   0.019636   0.000996   0.004549
  161  C 15  Z   -0.001606   0.001625   0.003251   0.000235  -0.001657
  162  C 15 XX   -0.000082   0.000058  -0.000040   0.000196   0.000713
  163  C 15 YY    0.000216  -0.000091  -0.000940  -0.002392  -0.000037
  164  C 15 ZZ   -0.000134   0.000033   0.000981   0.002195  -0.000676
  165  C 15 XY    0.000000   0.000000   0.000000   0.000000   0.000000
  166  C 15 XZ    0.000000   0.000000   0.000000   0.000000   0.000000
  167  C 15 YZ    0.000296  -0.000209   0.014447   0.003997  -0.014470
  168  C 16  S   -0.000019   0.000000   0.000017  -0.000143   0.007261
  169  C 16  S   -0.000029   0.000002   0.000027  -0.000238   0.000070
  170  C 16  S    0.002716   0.000564   0.003641   0.015398   0.000671
  171  C 16  X    0.000000   0.000000   0.000000   0.000000   0.000000
  172  C 16  Y   -0.000004  -0.000019  -0.000068   0.000048  -0.000043
  173  C 16  Z    0.000005   0.000010   0.000028  -0.000047   0.000077
  174  C 16  X    0.000000   0.000000   0.000000   0.000000   0.000000
  175  C 16  Y   -0.000183  -0.000592   0.052255  -0.015449  -0.052863
  176  C 16  Z    0.002267   0.000882  -0.000229   0.007403   0.003186
  177  C 16 XX   -0.000026   0.000000  -0.000026   0.000012   0.000096
  178  C 16 YY    0.000013  -0.000009   0.000014   0.000002   0.000001
  179  C 16 ZZ    0.000013   0.000009   0.000012  -0.000014  -0.000097
  180  C 16 XY    0.000000   0.000000   0.000000   0.000000   0.000000
  181  C 16 XZ    0.000000   0.000000   0.000000   0.000000   0.000000
  182  C 16 YZ   -0.000014  -0.000016   0.000051   0.000005  -0.000029
  183  C 16  S   -0.009662  -0.004890  -0.010812   0.005019   0.016207
  184  C 16  X    0.000000   0.000000   0.000000   0.000000   0.000000
  185  C 16  Y   -0.004057   0.013690   0.019627  -0.001149   0.004535
  186  C 16  Z   -0.000844  -0.002123  -0.003249   0.000260   0.001658
  187  C 16 XX   -0.000052  -0.000085   0.000042   0.000196  -0.000714
  188  C 16 YY    0.000163   0.000168   0.000922  -0.002399   0.000036
  189  C 16 ZZ   -0.000110  -0.000082  -0.000964   0.002203   0.000678
  190  C 16 XY    0.000000   0.000000   0.000000   0.000000   0.000000
  191  C 16 XZ    0.000000   0.000000   0.000000   0.000000   0.000000
  192  C 16 YZ   -0.000191  -0.000308   0.014416  -0.004109  -0.014470
  193  C 17  S    0.000062  -0.000005  -0.000078  -0.000181  -0.709715
  194  C 17  S    0.000107  -0.000011  -0.000196  -0.000361  -0.005834
  195  C 17  S    0.002429  -0.002168  -0.004388   0.011415   0.051681
  196  C 17  X    0.000000   0.000000   0.000000   0.000000   0.000000
  197  C 17  Y    0.000027  -0.000011  -0.000037  -0.000032  -0.000082
  198  C 17  Z    0.000000   0.000000   0.000005   0.000016  -0.000033
  199  C 17  X    0.000000   0.000000   0.000000   0.000000   0.000000
  200  C 17  Y    0.001879  -0.000687   0.048963   0.028505  -0.028579
  201  C 17  Z   -0.001272   0.001027   0.003196  -0.004519  -0.014527
  202  C 17 XX    0.000019  -0.000011  -0.000056  -0.000076   0.000491
  203  C 17 YY   -0.000061   0.000039   0.000117   0.000135  -0.000377
  204  C 17 ZZ    0.000042  -0.000029  -0.000061  -0.000060  -0.000114
  205  C 17 XY    0.000000   0.000000   0.000000   0.000000   0.000000
  206  C 17 XZ    0.000000   0.000000   0.000000   0.000000   0.000000
  207  C 17 YZ   -0.000051   0.000030  -0.000007   0.000019   0.000019
  208  C 17  S    0.003384  -0.009860  -0.003061   0.003411   0.053976
  209  C 17  X    0.000000   0.000000   0.000000   0.000000   0.000000
  210  C 17  Y   -0.002892  -0.006924   0.002507   0.003744  -0.018549
  211  C 17  Z    0.001668   0.001682   0.001874  -0.001496  -0.008547
  212  C 17 XX    0.000174   0.000083  -0.000385  -0.000130  -0.003428
  213  C 17 YY   -0.001432   0.000318   0.002095  -0.000269   0.004557
  214  C 17 ZZ    0.001259  -0.000400  -0.001710   0.000399  -0.001130
  215  C 17 XY    0.000000   0.000000   0.000000   0.000000   0.000000
  216  C 17 XZ    0.000000   0.000000   0.000000   0.000000   0.000000
  217  C 17 YZ   -0.001600   0.000634  -0.013762  -0.007556   0.009375
  218  C 18  S    0.000055   0.000029   0.000076  -0.000182   0.710535
  219  C 18  S    0.000094   0.000051   0.000193  -0.000363   0.005840
  220  C 18  S    0.001390   0.002945   0.004476   0.011380  -0.051717
  221  C 18  X    0.000000   0.000000   0.000000   0.000000   0.000000
  222  C 18  Y   -0.000021  -0.000021  -0.000036   0.000033  -0.000083
  223  C 18  Z    0.000000   0.000000  -0.000004   0.000016   0.000033
  224  C 18  X    0.000000   0.000000   0.000000   0.000000   0.000000
  225  C 18  Y   -0.001462  -0.001367   0.048742  -0.028884  -0.028565
  226  C 18  Z   -0.000769  -0.001443  -0.003231  -0.004493   0.014530
  227  C 18 XX    0.000013   0.000017   0.000056  -0.000076  -0.000492
  228  C 18 YY   -0.000041  -0.000060  -0.000116   0.000136   0.000378
  229  C 18 ZZ    0.000028   0.000043   0.000061  -0.000060   0.000114
  230  C 18 XY    0.000000   0.000000   0.000000   0.000000   0.000000
  231  C 18 XZ    0.000000   0.000000   0.000000   0.000000   0.000000
  232  C 18 YZ    0.000035   0.000047  -0.000008  -0.000019   0.000019
  233  C 18  S   -0.000736   0.010399   0.003086   0.003387  -0.054032
  234  C 18  X    0.000000   0.000000   0.000000   0.000000   0.000000
  235  C 18  Y    0.005367  -0.005243   0.002478  -0.003763  -0.018541
  236  C 18  Z    0.002193  -0.000897  -0.001885  -0.001482   0.008561
  237  C 18 XX    0.000192  -0.000008   0.000384  -0.000133   0.003432
  238  C 18 YY   -0.001194  -0.000852  -0.002097  -0.000252  -0.004566
  239  C 18 ZZ    0.001002   0.000860   0.001713   0.000385   0.001135
  240  C 18 XY    0.000000   0.000000   0.000000   0.000000   0.000000
  241  C 18 XZ    0.000000   0.000000   0.000000   0.000000   0.000000
  242  C 18 YZ    0.001225   0.001209  -0.013703   0.007662   0.009373
  243  C 19  S   -0.000019   0.000003   0.004527   0.004409  -0.007238
  244  C 19  S   -0.000045   0.000014   0.000158   0.000022  -0.000156
  245  C 19  S    0.005979  -0.003284  -0.007057   0.002786   0.006018
  246  C 19  X    0.000000   0.000000   0.000000   0.000000   0.000000
  247  C 19  Y   -0.000088   0.000055   0.000088   0.000087   0.000112
  248  C 19  Z   -0.000023   0.000018   0.000054   0.000043  -0.000036
  249  C 19  X    0.000000   0.000000   0.000000   0.000000   0.000000
  250  C 19  Y    0.004128  -0.002555   0.045592   0.035499  -0.003356
  251  C 19  Z    0.002996  -0.001514   0.004155   0.007252   0.000544
  252  C 19 XX   -0.000015   0.000000   0.000110   0.000109  -0.000140
  253  C 19 YY   -0.000059   0.000044   0.000030   0.000032   0.000058
  254  C 19 ZZ    0.000074  -0.000045  -0.000140  -0.000141   0.000082
  255  C 19 XY    0.000000   0.000000   0.000000   0.000000   0.000000
  256  C 19 XZ    0.000000   0.000000   0.000000   0.000000   0.000000
  257  C 19 YZ   -0.000010   0.000002   0.000124   0.000111  -0.000094
  258  C 19  S    0.001451   0.006027   0.004808   0.005244  -0.020129
  259  C 19  X    0.000000   0.000000   0.000000   0.000000   0.000000
  260  C 19  Y   -0.002786   0.004364   0.014511   0.005529   0.011743
  261  C 19  Z   -0.001223   0.002666   0.003477   0.002464  -0.000864
  262  C 19 XX    0.000535  -0.000366  -0.000333  -0.000287   0.000544
  263  C 19 YY   -0.002889   0.001574  -0.001642  -0.001932   0.000159
  264  C 19 ZZ    0.002354  -0.001209   0.001974   0.002220  -0.000703
  265  C 19 XY    0.000000   0.000000   0.000000   0.000000   0.000000
  266  C 19 XZ    0.000000   0.000000   0.000000   0.000000   0.000000
  267  C 19 YZ    0.000708  -0.000542   0.012182   0.009184  -0.001055
  268  C 20  S   -0.000016  -0.000010  -0.004492   0.004444   0.007246
  269  C 20  S   -0.000036  -0.000031  -0.000158   0.000024   0.000156
  270  C 20  S    0.004221   0.005359   0.007079   0.002731  -0.006002
  271  C 20  X    0.000000   0.000000   0.000000   0.000000   0.000000
  272  C 20  Y    0.000060   0.000085   0.000087  -0.000088   0.000112
  273  C 20  Z   -0.000015  -0.000025  -0.000054   0.000043   0.000036
  274  C 20  X    0.000000   0.000000   0.000000   0.000000   0.000000
  275  C 20  Y   -0.002802  -0.003965   0.045318  -0.035851  -0.003335
  276  C 20  Z    0.002167   0.002564  -0.004099   0.007284  -0.000538
  277  C 20 XX   -0.000014  -0.000006  -0.000109   0.000110   0.000140
  278  C 20 YY   -0.000037  -0.000064  -0.000030   0.000032  -0.000058
  279  C 20 ZZ    0.000051   0.000070   0.000139  -0.000142  -0.000082
  280  C 20 XY    0.000000   0.000000   0.000000   0.000000   0.000000
  281  C 20 XZ    0.000000   0.000000   0.000000   0.000000   0.000000
  282  C 20 YZ    0.000008   0.000006   0.000123  -0.000112  -0.000094
  283  C 20  S    0.003690  -0.004981  -0.004766   0.005281   0.020167
  284  C 20  X    0.000000   0.000000   0.000000   0.000000   0.000000
  285  C 20  Y    0.000860   0.005105   0.014467  -0.005641   0.011750
  286  C 20  Z   -0.000084  -0.002932  -0.003458   0.002490   0.000870
  287  C 20 XX    0.000350   0.000546   0.000331  -0.000290  -0.000545
  288  C 20 YY   -0.002044  -0.002578   0.001627  -0.001945  -0.000161
  289  C 20 ZZ    0.001695   0.002032  -0.001957   0.002235   0.000705
  290  C 20 XY    0.000000   0.000000   0.000000   0.000000   0.000000
  291  C 20 XZ    0.000000   0.000000   0.000000   0.000000   0.000000
  292  C 20 YZ   -0.000441  -0.000775   0.012111  -0.009278  -0.001049
  293  C 21  S    0.000226  -0.000139   0.712750   0.707174   0.000260
  294  C 21  S    0.000320  -0.000194   0.005537   0.005339   0.000301
  295  C 21  S    0.003502  -0.002678  -0.045775  -0.039658   0.002165
  296  C 21  X    0.000000   0.000000   0.000000   0.000000   0.000000
  297  C 21  Y    0.000283  -0.000185   0.000816   0.000819  -0.000087
  298  C 21  Z   -0.000070   0.000048  -0.000152  -0.000144  -0.000025
  299  C 21  X    0.000000   0.000000   0.000000   0.000000   0.000000
  300  C 21  Y    0.012683  -0.008179   0.021960   0.020149  -0.000567
  301  C 21  Z   -0.003991   0.002412   0.012288   0.009495   0.001740
  302  C 21 XX    0.000013  -0.000008  -0.000527  -0.000538   0.000086
  303  C 21 YY   -0.000204   0.000131   0.000489   0.000484  -0.000090
  304  C 21 ZZ    0.000191  -0.000123   0.000038   0.000054   0.000004
  305  C 21 XY    0.000000   0.000000   0.000000   0.000000   0.000000
  306  C 21 XZ    0.000000   0.000000   0.000000   0.000000   0.000000
  307  C 21 YZ    0.000106  -0.000069  -0.000088  -0.000097   0.000022
  308  C 21  S    0.016225  -0.011306  -0.024258  -0.013736   0.008714
  309  C 21  X    0.000000   0.000000   0.000000   0.000000   0.000000
  310  C 21  Y    0.004645  -0.003545   0.004098   0.005493  -0.003896
  311  C 21  Z   -0.002410   0.001830   0.003470   0.002099   0.000953
  312  C 21 XX   -0.001173   0.000814   0.002117   0.001919   0.000575
  313  C 21 YY    0.001434  -0.001091  -0.001062  -0.001225  -0.001400
  314  C 21 ZZ   -0.000261   0.000277  -0.001055  -0.000695   0.000825
  315  C 21 XY    0.000000   0.000000   0.000000   0.000000   0.000000
  316  C 21 XZ    0.000000   0.000000   0.000000   0.000000   0.000000
  317  C 21 YZ   -0.003556   0.002259  -0.007310  -0.006420   0.001265
  318  C 22  S    0.000154   0.000217  -0.707265   0.712660  -0.000260
  319  C 22  S    0.000219   0.000304  -0.005495   0.005382  -0.000302
  320  C 22  S    0.002178   0.003833   0.045468  -0.040011  -0.002152
  321  C 22  X    0.000000   0.000000   0.000000   0.000000   0.000000
  322  C 22  Y   -0.000188  -0.000281   0.000810  -0.000825  -0.000087
  323  C 22  Z   -0.000046  -0.000071   0.000151  -0.000145   0.000025
  324  C 22  X    0.000000   0.000000   0.000000   0.000000   0.000000
  325  C 22  Y   -0.008480  -0.012484   0.021803  -0.020318  -0.000564
  326  C 22  Z   -0.002732  -0.003779  -0.012214   0.009590  -0.001750
  327  C 22 XX    0.000009   0.000012   0.000523  -0.000542  -0.000086
  328  C 22 YY   -0.000136  -0.000200  -0.000485   0.000488   0.000090
  329  C 22 ZZ    0.000127   0.000188  -0.000038   0.000054  -0.000004
  330  C 22 XY    0.000000   0.000000   0.000000   0.000000   0.000000
  331  C 22 XZ    0.000000   0.000000   0.000000   0.000000   0.000000
  332  C 22 YZ   -0.000071  -0.000105  -0.000087   0.000098   0.000022
  333  C 22  S    0.010519   0.016746   0.024150  -0.013923  -0.008720
  334  C 22  X    0.000000   0.000000   0.000000   0.000000   0.000000
  335  C 22  Y   -0.002891  -0.005078   0.004055  -0.005524  -0.003898
  336  C 22  Z   -0.001504  -0.002626  -0.003453   0.002126  -0.000955
  337  C 22 XX   -0.000762  -0.001208  -0.002102   0.001936  -0.000576
  338  C 22 YY    0.000894   0.001565   0.001052  -0.001233   0.001400
  339  C 22 ZZ   -0.000132  -0.000357   0.001050  -0.000703  -0.000824
  340  C 22 XY    0.000000   0.000000   0.000000   0.000000   0.000000
  341  C 22 XZ    0.000000   0.000000   0.000000   0.000000   0.000000
  342  C 22 YZ    0.002391   0.003469  -0.007260   0.006476   0.001264
  343  N 23  S    0.836272  -0.553560   0.000102   0.000115  -0.000028
  344  N 23  S    0.004368  -0.002890   0.000566   0.000585  -0.000043
  345  N 23  S   -0.019292   0.012708  -0.004919  -0.004983   0.001504
  346  N 23  X    0.000000   0.000000   0.000000   0.000000   0.000000
  347  N 23  Y   -0.000291   0.000194  -0.000219  -0.000219  -0.000012
  348  N 23  Z    0.000090  -0.000060   0.000068   0.000068   0.000006
  349  N 23  X    0.000000   0.000000   0.000000   0.000000   0.000000
  350  N 23  Y    0.004712  -0.003153   0.002087   0.002215  -0.000750
  351  N 23  Z   -0.000949   0.000684  -0.000652  -0.000711   0.000129
  352  N 23 XX   -0.000202   0.000133   0.000212   0.000211  -0.000032
[...]
            275  C 20  Y      0.02179     0.22392
            276  C 20  Z      0.09228     0.28341
            277  C 20 XX      0.02274     0.05468
            278  C 20 YY      0.01198     0.16322
            279  C 20 ZZ      0.00812     0.14549
            280  C 20 XY      0.00611     0.01288
            281  C 20 XZ      0.02625     0.00748
            282  C 20 YZ      0.00000     0.05700
            283  C 20  S     -0.43594     0.04404
            284  C 20  X      0.01328     0.02935
            285  C 20  Y      0.15123     0.04053
            286  C 20  Z      0.14967     0.03191
            287  C 20 XX     -0.12557     0.00708
            288  C 20 YY     -0.00039     0.12492
            289  C 20 ZZ      0.02051     0.12436
            290  C 20 XY      0.00011     0.07805
            291  C 20 XZ     -0.15879     0.01993
            292  C 20 YZ      0.00000     0.14000
            293  C 21  S      2.00808     1.79304
            294  C 21  S      0.68007     0.44949
            295  C 21  S      0.61287     0.17085
            296  C 21  X      0.41276     0.33309
            297  C 21  Y      0.75066     0.62896
            298  C 21  Z      0.76695     0.63513
            299  C 21  X      0.23216     0.22477
            300  C 21  Y     -0.04825     0.20411
            301  C 21  Z     -0.19065     0.27018
            302  C 21 XX      0.02999     0.05248
            303  C 21 YY      0.02151     0.17905
            304  C 21 ZZ      0.04409     0.15278
            305  C 21 XY      0.00553     0.07468
            306  C 21 XZ      0.03007     0.00778
            307  C 21 YZ      0.00000     0.06308
            308  C 21  S     -0.16176     0.04235
            309  C 21  X      0.01608     0.02497
            310  C 21  Y      0.00808     0.03628
            311  C 21  Z      0.05769     0.02722
            312  C 21 XX     -0.11038     0.00623
            313  C 21 YY     -0.00660     0.15039
            314  C 21 ZZ      0.02317     0.12255
            315  C 21 XY     -0.00989     0.19776
            316  C 21 XZ     -0.05997     0.01988
            317  C 21 YZ      0.00000     0.14476
            318  C 22  S      2.00808     1.79304
            319  C 22  S      0.68007     0.44949
            320  C 22  S      0.61288     0.17085
            321  C 22  X      0.41276     0.33309
            322  C 22  Y      0.75066     0.62896
            323  C 22  Z      0.76695     0.63513
            324  C 22  X      0.23216     0.22477
            325  C 22  Y     -0.04825     0.20411
            326  C 22  Z     -0.19065     0.27018
            327  C 22 XX      0.02999     0.05248
            328  C 22 YY      0.02151     0.17905
            329  C 22 ZZ      0.04409     0.15278
            330  C 22 XY      0.00553     0.07468
            331  C 22 XZ      0.03007     0.00778
            332  C 22 YZ      0.00000     0.06308
            333  C 22  S     -0.16176     0.04235
            334  C 22  X      0.01608     0.02497
            335  C 22  Y      0.00808     0.03628
            336  C 22  Z      0.05769     0.02722
            337  C 22 XX     -0.11038     0.00623
            338  C 22 YY     -0.00660     0.15039
            339  C 22 ZZ      0.02317     0.12255
            340  C 22 XY     -0.00989     0.19776
            341  C 22 XZ     -0.05997     0.01988
            342  C 22 YZ      0.00000     0.14476
            343  N 23  S      2.00571     1.84295
            344  N 23  S      0.71066     0.48350
            345  N 23  S      0.77638     0.24203
            346  N 23  X      0.92087     0.83630
            347  N 23  Y      0.76637     0.66530
            348  N 23  Z      0.76722     0.66248
            349  N 23  X      0.74565     0.46638
            350  N 23  Y      0.28530     0.36231
            351  N 23  Z      0.29865     0.39062
            352  N 23 XX      0.00830     0.08663
            353  N 23 YY      0.00529     0.15163
            354  N 23 ZZ      0.00342     0.14166
            355  N 23 XY      0.00035     0.00456
            356  N 23 XZ      0.01223     0.00053
            357  N 23 YZ      0.00000     0.02320
            358  N 23  S     -0.09423     0.05056
            359  N 23  X      0.03944     0.03918
            360  N 23  Y      0.03312     0.04612
            361  N 23  Z     -0.00649     0.04001
            362  N 23 XX     -0.01616     0.01067
            363  N 23 YY      0.00292     0.09757
            364  N 23 ZZ      0.01461     0.06767
            365  N 23 XY      0.00118     0.04183
            366  N 23 XZ     -0.01944     0.00387
            367  N 23 YZ      0.00000     0.11533
            368  N 24  S      2.00571     1.84295
            369  N 24  S      0.71066     0.48350
            370  N 24  S      0.77638     0.24203
            371  N 24  X      0.92087     0.83630
            372  N 24  Y      0.76637     0.66530
            373  N 24  Z      0.76722     0.66248
            374  N 24  X      0.74565     0.46638
            375  N 24  Y      0.28530     0.36231
            376  N 24  Z      0.29865     0.39062
            377  N 24 XX      0.00830     0.08663
            378  N 24 YY      0.00529     0.15163
            379  N 24 ZZ      0.00342     0.14166
            380  N 24 XY      0.00035     0.00456
            381  N 24 XZ      0.01223     0.00053
            382  N 24 YZ      0.00000     0.02320
            383  N 24  S     -0.09422     0.05056
            384  N 24  X      0.03944     0.03918
            385  N 24  Y      0.03312     0.04612
            386  N 24  Z     -0.00649     0.04001
            387  N 24 XX     -0.01616     0.01067
            388  N 24 YY      0.00292     0.09757
            389  N 24 ZZ      0.01461     0.06767
            390  N 24 XY      0.00118     0.04183
            391  N 24 XZ     -0.01944     0.00387
            392  N 24 YZ      0.00000     0.11533

          ----- MULLIKEN ATOMIC OVERLAP POPULATIONS -----
          (OFF-DIAGONAL ELEMENTS NEED TO BE MULTIPLIED BY 2)

             1           2           3           4           5

    1    2.3531380
    2    0.0874479   2.1084048
    3    0.0874499  -0.1433859   2.1083926
    4   -0.2429990   0.0876679  -0.0175533   2.1219426
    5   -0.2430002  -0.0175536   0.0876649   0.0327983   2.1219328
    6   -0.0149677  -0.1209843   0.0129735   0.0677515   0.0008866
    7   -0.0149694   0.0129737  -0.1209804   0.0008866   0.0677553
    8    0.0155590  -0.0024890   0.0002418  -0.0912384  -0.0014288
    9    0.0155597   0.0002418  -0.0024878  -0.0014289  -0.0912396
   10    0.0004173   0.0006356  -0.0002471  -0.0023872  -0.0000214
   11    0.0004174  -0.0002471   0.0006357  -0.0000214  -0.0023875
   12   -0.0004575   0.0003895  -0.0000074   0.0016878   0.0000253
   13   -0.0004576  -0.0000074   0.0003894   0.0000253   0.0016886
   14   -1.1534771   0.3267561   0.3267574  -0.0376671  -0.0376446
   15    0.1822947  -1.2506258   0.1798030   0.4456065   0.1431321
   16    0.1822924   0.1797838  -1.2506087   0.1431382   0.4455273
   17    0.0600618   0.1056182   0.0510729  -0.6143908  -0.0316305
   18    0.0600133   0.0510775   0.1055857  -0.0316251  -0.6143279
   19    0.0941131   0.0727404   0.0036666  -0.2624463   0.0020323
   20    0.0941258   0.0036652   0.0727441   0.0020324  -0.2624415
   21    0.0201823   0.0685435   0.0002344  -0.0308414  -0.0033403
   22    0.0201811   0.0002352   0.0685455  -0.0033403  -0.0308359
   23   -0.0034139   0.0060078  -0.0003955   0.0279352   0.0001599
   24   -0.0034139  -0.0003955   0.0060077   0.0001599   0.0279349

             6           7           8           9          10

    6    1.9109306
    7   -0.0006597   1.9109292
    8    0.0393812  -0.0000316   1.3633672
    9   -0.0000316   0.0393797   0.0000828   1.3633722
   10    0.0253343   0.0000128   0.0171711   0.0000001   0.8401190
   11    0.0000128   0.0253342   0.0000001   0.0171715  -0.0000002
   12   -0.0056456  -0.0000009  -0.0298961  -0.0000005  -0.1825933
   13   -0.0000009  -0.0056455  -0.0000005  -0.0298973   0.0000000
   14    0.1223221   0.1223219   0.0208746   0.0208773  -0.0004699
   15   -0.0439765  -0.0227530   0.0167508  -0.0061155   0.0110469
   16   -0.0227494  -0.0440133  -0.0061145   0.0167509  -0.0006010
   17    0.9661858   0.0006349  -0.0805984   0.0028292  -0.0652019
   18    0.0006331   0.9662417   0.0028286  -0.0805955   0.0002861
   19   -0.8716452  -0.0007833   0.1867837  -0.0002125   0.1904056
   20   -0.0007831  -0.8716835  -0.0002125   0.1867791  -0.0000062
   21   -0.4610553  -0.0002388  -0.0516160   0.0001593  -0.2232041
   22   -0.0002388  -0.4610383   0.0001593  -0.0516190   0.0000049
   23   -0.0115441   0.0000174  -0.0140963  -0.0000030   0.4235413
   24    0.0000174  -0.0115432  -0.0000030  -0.0140938  -0.0000002

            11          12          13          14          15

   11    0.8401189
   12    0.0000000   0.8311303
   13   -0.1825935   0.0000000   0.8311316
   14   -0.0004697  -0.0037054  -0.0037056  14.0955568
   15   -0.0006010   0.0056653   0.0009767  -4.4842158  15.3618787
   16    0.0110463   0.0009766   0.0056650  -4.4839356  -0.1622077
   17    0.0002861  -0.0214173  -0.0002719   0.7892479  -4.6730471
   18   -0.0651998  -0.0002719  -0.0214177   0.7891935  -0.2803082
   19   -0.0000062  -0.0051455   0.0000104  -0.3348753  -0.4096093
   20    0.1904003   0.0000104  -0.0051449  -0.3348542  -0.2251128
   21    0.0000049  -0.0657940  -0.0000034  -0.1084068   0.0563118
   22   -0.2231995  -0.0000034  -0.0657940  -0.1083983   0.0846960
   23   -0.0000002   0.4379993   0.0000001   0.0155856  -0.0295218
   24    0.4235401   0.0000001   0.4379994   0.0155833  -0.0032304

            16          17          18          19          20

   16   15.3613486
   17   -0.2803846  12.5818263
   18   -4.6727580  -0.0439723  12.5817129
   19   -0.2250744  -2.8542988   0.1022523  10.8079010
   20   -0.4094711   0.1022597  -2.8545800  -0.0147932  10.8080949
   21    0.0846909  -0.0681041  -0.0287769  -1.1942961   0.0016269
   22    0.0562766  -0.0287776  -0.0680460   0.0016274  -1.1943443
   23   -0.0032309  -0.0201981   0.0013076  -0.1594507  -0.0000607
   24   -0.0295143   0.0013075  -0.0202067  -0.0000607  -0.1594492

            21          22          23          24

   21    6.7804153
   22   -0.0003584   6.7804162
   23    0.3361154   0.0000090   6.2545989
   24    0.0000090   0.3361144   0.0000000   6.2546020

          TOTAL MULLIKEN AND LOWDIN ATOMIC POPULATIONS
       ATOM         MULL.POP.    CHARGE          LOW.POP.     CHARGE
    1 H             1.596097   -0.596097         0.917764    0.082236
    2 H             1.576500   -0.576500         0.930428    0.069572
    3 H             1.576499   -0.576499         0.930428    0.069572
    4 H             1.595693   -0.595693         0.917312    0.082688
    5 H             1.595687   -0.595687         0.917312    0.082688
    6 H             1.592147   -0.592147         0.930775    0.069225
    7 H             1.592147   -0.592147         0.930775    0.069225
    8 H             1.385475   -0.385475         0.903147    0.096853
    9 H             1.385479   -0.385479         0.903147    0.096853
   10 H             1.034243   -0.034243         0.918364    0.081636
   11 H             1.034242   -0.034242         0.918364    0.081636
   12 H             0.962946    0.037054         0.917062    0.082938
   13 H             0.962946    0.037054         0.917062    0.082938
   14 C             5.553251    0.446749         6.017925   -0.017925
   15 C             4.896838    1.103162         6.051354   -0.051354
   16 C             4.896833    1.103167         6.051354   -0.051354
   17 C             5.879037    0.120963         6.024724   -0.024724
   18 C             5.879046    0.120954         6.024724   -0.024724
   19 C             5.128835    0.871165         6.054218   -0.054218
   20 C             5.128801    0.871199         6.054218   -0.054218
   21 C             5.112258    0.887742         6.011878   -0.011878
   22 C             5.112272    0.887728         6.011878   -0.011878
   23 N             7.261362   -0.261362         6.872893    0.127107
   24 N             7.261365   -0.261365         6.872893    0.127107

          MULLIKEN SPHERICAL HARMONIC POPULATIONS
       ATOM           S       P       D      F      G      H      I    TOTAL
    1 H             1.58    0.01    0.00   0.00   0.00   0.00   0.00    1.60
    2 H             1.56    0.01    0.00   0.00   0.00   0.00   0.00    1.58
    3 H             1.56    0.01    0.00   0.00   0.00   0.00   0.00    1.58
    4 H             1.60    0.00    0.00   0.00   0.00   0.00   0.00    1.60
    5 H             1.60    0.00    0.00   0.00   0.00   0.00   0.00    1.60
    6 H             1.57    0.02    0.00   0.00   0.00   0.00   0.00    1.59
    7 H             1.57    0.02    0.00   0.00   0.00   0.00   0.00    1.59
    8 H             1.37    0.02    0.00   0.00   0.00   0.00   0.00    1.39
    9 H             1.37    0.02    0.00   0.00   0.00   0.00   0.00    1.39
   10 H             0.99    0.04    0.00   0.00   0.00   0.00   0.00    1.03
   11 H             0.99    0.04    0.00   0.00   0.00   0.00   0.00    1.03
   12 H             0.94    0.02    0.00   0.00   0.00   0.00   0.00    0.96
   13 H             0.94    0.02    0.00   0.00   0.00   0.00   0.00    0.96
   14 C             2.66    2.86    0.04   0.00   0.00   0.00   0.00    5.55
   15 C             2.38    2.71   -0.20   0.00   0.00   0.00   0.00    4.90
   16 C             2.38    2.71   -0.20   0.00   0.00   0.00   0.00    4.90
   17 C             2.95    2.77    0.16   0.00   0.00   0.00   0.00    5.88
   18 C             2.95    2.77    0.16   0.00   0.00   0.00   0.00    5.88
   19 C             2.32    3.00   -0.19   0.00   0.00   0.00   0.00    5.13
   20 C             2.32    3.00   -0.19   0.00   0.00   0.00   0.00    5.13
   21 C             3.14    2.01   -0.03   0.00   0.00   0.00   0.00    5.11
   22 C             3.14    2.01   -0.03   0.00   0.00   0.00   0.00    5.11
   23 N             3.40    3.85    0.01   0.00   0.00   0.00   0.00    7.26
   24 N             3.40    3.85    0.01   0.00   0.00   0.00   0.00    7.26

          -------------------------------
          BOND ORDER AND VALENCE ANALYSIS     BOND ORDER THRESHOLD=0.050
          -------------------------------

                   BOND                       BOND                       BOND
  ATOM PAIR DIST  ORDER      ATOM PAIR DIST  ORDER      ATOM PAIR DIST  ORDER
    1   4  2.355 -0.108        1   5  2.355 -0.108        1  14  1.088 -0.290
    1  15  2.121  0.510        1  16  2.121  0.510        1  17  2.626 -0.179
    1  18  2.626 -0.179        1  19  4.019  0.067        1  20  4.019  0.067
    2   3  2.526 -0.059        2   4  3.077  0.061        2   6  2.546 -0.053
    2  14  2.136  0.628        2  15  1.085 -0.433        2  16  2.721 -0.154
    2  17  2.132  0.501        2  18  4.095  0.064        2  19  2.725 -0.099
    3   5  3.077  0.061        3   7  2.546 -0.053        3  14  2.136  0.628
    3  15  2.721 -0.154        3  16  1.085 -0.433        3  17  4.095  0.064
    3  18  2.132  0.500        3  20  2.725 -0.099        4  14  2.622 -0.286
    4  15  2.114  0.570        4  16  4.010  0.117        4  17  1.088  0.059
    4  19  2.124  0.188        4  21  2.602 -0.108        5  14  2.622 -0.286
    5  15  4.010  0.117        5  16  2.114  0.570        5  18  1.088  0.059
    5  20  2.124  0.188        5  22  2.602 -0.108        6  14  4.117  0.106
    6  15  2.737 -0.302        6  17  2.147  1.041        6  19  1.085 -0.197
    7  14  4.117  0.106        7  16  2.737 -0.302        7  18  2.147  1.041
    7  20  1.085 -0.197        8  15  4.009  0.064        8  19  2.126  0.055
    8  21  1.085  0.710        9  16  4.009  0.064        9  20  2.126  0.055
    9  22  1.085  0.710       10  12  1.716 -0.092       10  17  4.043 -0.063
   10  19  2.665  0.142       10  21  2.040 -0.197       10  23  1.006  1.119
   11  13  1.716 -0.092       11  18  4.043 -0.063       11  20  2.665  0.142
   11  22  2.040 -0.197       11  24  1.006  1.119       12  21  2.035 -0.063
   12  23  1.003  1.072       13  22  2.035 -0.063       13  24  1.003  1.072
   14  15  1.388  1.984       14  16  1.388  1.984       14  17  2.421 -0.364
   14  18  2.421 -0.364       14  19  3.728  0.200       14  20  3.728  0.200
   15  16  2.466 -0.724       15  17  1.381  1.799       15  18  3.720  0.287
   15  19  2.467 -0.582       15  21  3.702  0.160       15  22  6.119  0.111
   16  17  3.720  0.287       16  18  1.381  1.799       16  20  2.467 -0.582
   16  21  6.119  0.111       16  22  3.702  0.160       17  18  4.839 -0.070
   17  19  1.393  2.103       17  20  6.140  0.066       17  21  2.405 -0.126
   18  19  6.140  0.066       18  20  1.393  2.103       18  22  2.405 -0.126
   19  21  1.373  1.261       20  22  1.373  1.261       21  23  1.326  1.118
   22  24  1.326  1.118

                       TOTAL       BONDED        FREE
      ATOM            VALENCE     VALENCE     VALENCE
    1 H                 0.369       0.369       0.000
    2 H                 0.516       0.516       0.000
    3 H                 0.516       0.516       0.000
    4 H                 0.512       0.512       0.000
    5 H                 0.512       0.512       0.000
    6 H                 0.628       0.628       0.000
    7 H                 0.628       0.628       0.000
    8 H                 0.828       0.828       0.000
    9 H                 0.828       0.828       0.000
   10 H                 0.977       0.977       0.000
   11 H                 0.977       0.977       0.000
   12 H                 0.891       0.891       0.000
   13 H                 0.891       0.891       0.000
   14 C                 4.266       4.266       0.000
   15 C                 3.392       3.392       0.000
   16 C                 3.391       3.391       0.000
   17 C                 5.037       5.037       0.000
   18 C                 5.037       5.037       0.000
   19 C                 3.166       3.166       0.000
   20 C                 3.166       3.166       0.000
   21 C                 2.837       2.837       0.000
   22 C                 2.837       2.837       0.000
   23 N                 3.344       3.344       0.000
   24 N                 3.344       3.344       0.000

          ---------------------
          ELECTROSTATIC MOMENTS
          ---------------------

 POINT   1           X           Y           Z (BOHR)    CHARGE
                 0.000000    0.000000   -0.005040        1.00 (A.U.)
         DX          DY          DZ         /D/  (DEBYE)
     0.000000    0.000000    1.846739    1.846739
 ...... END OF PROPERTY EVALUATION ......
 ON NODE 0, STEP CPU TIME =     0.61 TOTAL CPU TIME =      256.5 (    4.3 MIN)
 TOTAL WALL CLOCK TIME=      264.0 SECONDS, CPU UTILIZATION IS  97.15%
               1203082  WORDS OF DYNAMIC MEMORY USED
 EXECUTION OF GAMESS TERMINATED NORMALLY Tue Sep 19 10:59:21 2017
 DDI: 1128 bytes (0.0 MB / 0 MWords) used by master data server.

 ----------------------------------------
 CPU timing information for all processes
 ========================================
 0: 255.743983 + 0.756047 = 256.500030
 1: 256.524031 + 0.264016 = 256.788047
 2: 255.835988 + 0.380023 = 256.216011
 3: 256.244014 + 0.208013 = 256.452027
 4: 254.259890 + 0.336021 = 254.595911
 5: 256.284016 + 0.156009 = 256.440025
 6: 255.227950 + 0.496031 = 255.723981
 7: 256.220012 + 0.152009 = 256.372021
 ----------------------------------------
 ddikick.x: exited gracefully.
----- accounting info -----
Tue Sep 19 10:59:24 CEST 2017
Files used on the master node lpqlx139 were:
-rw-r--r-- 1 scemama scemama  2354881 Sep 19 10:59 /tmp/gamess/C9.dat
-rw-r--r-- 1 scemama scemama     1473 Sep 19 10:54 /tmp/gamess/C9.F05
-rw-r--r-- 1 scemama scemama 39525760 Sep 19 10:59 /tmp/gamess/C9.F10
0.100u 0.032s 4:26.72 0.0%	0+0k 0+8io 0pf+0w
